v 0 eval {set sim_annotation {(at 0.0) ftp traffic from node 19 to node 6}}
s 0.000985000 _19_ MAC  --- 0 AODV 55 [0 ffffffff 13 800] [energy 499.999691 ei 0.000 es 0.000 et 0.000 er 0.000] ------- [19:255 -1:255 30 0] [0x2 1 1 [6 0] [19 4]] (REQUEST)
N -t 0.000985 -n 23 -e 499.998971
N -t 0.000985 -n 12 -e 499.998971
N -t 0.000985 -n 22 -e 499.998971
N -t 0.000985 -n 2 -e 499.998971
N -t 0.000985 -n 7 -e 499.998971
N -t 0.000985 -n 8 -e 499.998971
N -t 0.000985 -n 20 -e 499.998971
r 0.003577021 _23_ MAC  --- 0 AODV 48 [0 ffffffff 13 800] [energy 499.998971 ei 0.000 es 0.000 et 0.000 er 0.001] ------- [19:255 -1:255 30 0] [0x2 1 1 [6 0] [19 4]] (REQUEST)
r 0.003577026 _12_ MAC  --- 0 AODV 48 [0 ffffffff 13 800] [energy 499.998971 ei 0.000 es 0.000 et 0.000 er 0.001] ------- [19:255 -1:255 30 0] [0x2 1 1 [6 0] [19 4]] (REQUEST)
r 0.003577035 _22_ MAC  --- 0 AODV 48 [0 ffffffff 13 800] [energy 499.998971 ei 0.000 es 0.000 et 0.000 er 0.001] ------- [19:255 -1:255 30 0] [0x2 1 1 [6 0] [19 4]] (REQUEST)
r 0.003577036 _2_ MAC  --- 0 AODV 48 [0 ffffffff 13 800] [energy 499.998971 ei 0.000 es 0.000 et 0.000 er 0.001] ------- [19:255 -1:255 30 0] [0x2 1 1 [6 0] [19 4]] (REQUEST)
r 0.003577045 _7_ MAC  --- 0 AODV 48 [0 ffffffff 13 800] [energy 499.998971 ei 0.000 es 0.000 et 0.000 er 0.001] ------- [19:255 -1:255 30 0] [0x2 1 1 [6 0] [19 4]] (REQUEST)
r 0.003577047 _8_ MAC  --- 0 AODV 48 [0 ffffffff 13 800] [energy 499.998971 ei 0.000 es 0.000 et 0.000 er 0.001] ------- [19:255 -1:255 30 0] [0x2 1 1 [6 0] [19 4]] (REQUEST)
r 0.003577049 _20_ MAC  --- 0 AODV 48 [0 ffffffff 13 800] [energy 499.998971 ei 0.000 es 0.000 et 0.000 er 0.001] ------- [19:255 -1:255 30 0] [0x2 1 1 [6 0] [19 4]] (REQUEST)
s 0.005502610 _22_ MAC  --- 0 AODV 55 [0 ffffffff 16 800] [energy 499.997951 ei 0.001 es 0.000 et 0.000 er 0.001] ------- [22:255 -1:255 29 0] [0x2 2 1 [6 0] [19 4]] (REQUEST)
N -t 0.005503 -n 12 -e 499.997231
N -t 0.005503 -n 8 -e 499.997231
N -t 0.005503 -n 7 -e 499.997231
N -t 0.005503 -n 19 -e 499.997279
N -t 0.005503 -n 11 -e 499.996938
N -t 0.005503 -n 23 -e 499.997231
N -t 0.005503 -n 2 -e 499.997231
s 0.007857188 _7_ MAC  --- 0 AODV 55 [0 ffffffff 7 800] [energy 499.997087 ei 0.002 es 0.000 et 0.000 er 0.001] ------- [7:255 -1:255 29 0] [0x2 2 1 [6 0] [19 4]] (REQUEST)
N -t 0.007857 -n 8 -e 499.996464
N -t 0.007857 -n 12 -e 499.996464
N -t 0.007857 -n 2 -e 499.996464
N -t 0.007857 -n 5 -e 499.995879
N -t 0.007857 -n 22 -e 499.996512
N -t 0.007857 -n 14 -e 499.995879
N -t 0.007857 -n 11 -e 499.996171
N -t 0.007857 -n 23 -e 499.996464
N -t 0.007857 -n 16 -e 499.995879
N -t 0.007857 -n 19 -e 499.996512
r 0.008094623 _12_ MAC  --- 0 AODV 48 [0 ffffffff 16 800] [energy 499.996464 ei 0.002 es 0.000 et 0.000 er 0.002] ------- [22:255 -1:255 29 0] [0x2 2 1 [6 0] [19 4]] (REQUEST)
r 0.008094626 _8_ MAC  --- 0 AODV 48 [0 ffffffff 16 800] [energy 499.996464 ei 0.002 es 0.000 et 0.000 er 0.002] ------- [22:255 -1:255 29 0] [0x2 2 1 [6 0] [19 4]] (REQUEST)
r 0.008094642 _7_ MAC  --- 0 AODV 48 [0 ffffffff 16 800] [energy 499.996415 ei 0.002 es 0.000 et 0.001 er 0.001] ------- [22:255 -1:255 29 0] [0x2 2 1 [6 0] [19 4]] (REQUEST)
r 0.008094644 _19_ MAC  --- 0 AODV 48 [0 ffffffff 16 800] [energy 499.996512 ei 0.002 es 0.000 et 0.001 er 0.001] ------- [22:255 -1:255 29 0] [0x2 2 1 [6 0] [19 4]] (REQUEST)
r 0.008094649 _11_ MAC  --- 0 AODV 48 [0 ffffffff 16 800] [energy 499.996171 ei 0.003 es 0.000 et 0.000 er 0.001] ------- [22:255 -1:255 29 0] [0x2 2 1 [6 0] [19 4]] (REQUEST)
r 0.008094655 _23_ MAC  --- 0 AODV 48 [0 ffffffff 16 800] [energy 499.996464 ei 0.002 es 0.000 et 0.000 er 0.002] ------- [22:255 -1:255 29 0] [0x2 2 1 [6 0] [19 4]] (REQUEST)
r 0.008094656 _2_ MAC  --- 0 AODV 48 [0 ffffffff 16 800] [energy 499.996464 ei 0.002 es 0.000 et 0.000 er 0.002] ------- [22:255 -1:255 29 0] [0x2 2 1 [6 0] [19 4]] (REQUEST)
s 0.010228206 _2_ MAC  --- 0 AODV 55 [0 ffffffff 2 800] [energy 499.996320 ei 0.002 es 0.000 et 0.000 er 0.002] ------- [2:255 -1:255 29 0] [0x2 2 1 [6 0] [19 4]] (REQUEST)
N -t 0.010228 -n 23 -e 499.995733
N -t 0.010228 -n 14 -e 499.995104
N -t 0.010228 -n 7 -e 499.995641
N -t 0.010228 -n 5 -e 499.995104
N -t 0.010228 -n 12 -e 499.995642
N -t 0.010228 -n 19 -e 499.995738
N -t 0.010228 -n 8 -e 499.995690
N -t 0.010228 -n 22 -e 499.995738
r 0.010449213 _8_ MAC  --- 0 AODV 48 [0 ffffffff 7 800] [energy 499.995690 ei 0.002 es 0.000 et 0.000 er 0.002] ------- [7:255 -1:255 29 0] [0x2 2 1 [6 0] [19 4]] (REQUEST)
r 0.010449213 _12_ MAC  --- 0 AODV 48 [0 ffffffff 7 800] [energy 499.995642 ei 0.002 es 0.000 et 0.000 er 0.002] ------- [7:255 -1:255 29 0] [0x2 2 1 [6 0] [19 4]] (REQUEST)
r 0.010449214 _2_ MAC  --- 0 AODV 48 [0 ffffffff 7 800] [energy 499.995648 ei 0.002 es 0.000 et 0.001 er 0.002] ------- [7:255 -1:255 29 0] [0x2 2 1 [6 0] [19 4]] (REQUEST)
r 0.010449217 _5_ MAC  --- 0 AODV 48 [0 ffffffff 7 800] [energy 499.995104 ei 0.004 es 0.000 et 0.000 er 0.001] ------- [7:255 -1:255 29 0] [0x2 2 1 [6 0] [19 4]] (REQUEST)
r 0.010449221 _22_ MAC  --- 0 AODV 48 [0 ffffffff 7 800] [energy 499.995738 ei 0.002 es 0.000 et 0.001 er 0.002] ------- [7:255 -1:255 29 0] [0x2 2 1 [6 0] [19 4]] (REQUEST)
r 0.010449221 _14_ MAC  --- 0 AODV 48 [0 ffffffff 7 800] [energy 499.995104 ei 0.004 es 0.000 et 0.000 er 0.001] ------- [7:255 -1:255 29 0] [0x2 2 1 [6 0] [19 4]] (REQUEST)
r 0.010449226 _11_ MAC  --- 0 AODV 48 [0 ffffffff 7 800] [energy 499.996171 ei 0.003 es 0.000 et 0.000 er 0.001] ------- [7:255 -1:255 29 0] [0x2 2 1 [6 0] [19 4]] (REQUEST)
r 0.010449227 _23_ MAC  --- 0 AODV 48 [0 ffffffff 7 800] [energy 499.995733 ei 0.002 es 0.000 et 0.000 er 0.002] ------- [7:255 -1:255 29 0] [0x2 2 1 [6 0] [19 4]] (REQUEST)
r 0.010449231 _16_ MAC  --- 0 AODV 48 [0 ffffffff 7 800] [energy 499.995879 ei 0.004 es 0.000 et 0.000 er 0.001] ------- [7:255 -1:255 29 0] [0x2 2 1 [6 0] [19 4]] (REQUEST)
r 0.010449233 _19_ MAC  --- 0 AODV 48 [0 ffffffff 7 800] [energy 499.995738 ei 0.002 es 0.000 et 0.001 er 0.002] ------- [7:255 -1:255 29 0] [0x2 2 1 [6 0] [19 4]] (REQUEST)
s 0.010978219 _11_ MAC  --- 0 AODV 55 [0 ffffffff b 800] [energy 499.995780 ei 0.003 es 0.000 et 0.000 er 0.001] ------- [11:255 -1:255 28 0] [0x2 3 1 [6 0] [19 4]] (REQUEST)
N -t 0.010978 -n 8 -e 499.995465
N -t 0.010978 -n 7 -e 499.995416
N -t 0.010978 -n 22 -e 499.995513
N -t 0.010978 -n 3 -e 499.994474
N -t 0.010978 -n 12 -e 499.995417
D 0.012180232 _7_ MAC  LQI 0 AODV 55 [0 ffffffff 2 800] [energy 499.995416 ei 0.002 es 0.000 et 0.001 er 0.002] ------- [2:255 -1:255 29 0] [0x2 2 1 [6 0] [19 4]] (REQUEST)
D 0.012180240 _12_ MAC  LQI 0 AODV 55 [0 ffffffff 2 800] [energy 499.995417 ei 0.002 es 0.000 et 0.000 er 0.003] ------- [2:255 -1:255 29 0] [0x2 2 1 [6 0] [19 4]] (REQUEST)
r 0.012820226 _23_ MAC  --- 0 AODV 48 [0 ffffffff 2 800] [energy 499.995733 ei 0.002 es 0.000 et 0.000 er 0.002] ------- [2:255 -1:255 29 0] [0x2 2 1 [6 0] [19 4]] (REQUEST)
r 0.012820230 _14_ MAC  --- 0 AODV 48 [0 ffffffff 2 800] [energy 499.995104 ei 0.004 es 0.000 et 0.000 er 0.001] ------- [2:255 -1:255 29 0] [0x2 2 1 [6 0] [19 4]] (REQUEST)
r 0.012820235 _5_ MAC  --- 0 AODV 48 [0 ffffffff 2 800] [energy 499.995104 ei 0.004 es 0.000 et 0.000 er 0.001] ------- [2:255 -1:255 29 0] [0x2 2 1 [6 0] [19 4]] (REQUEST)
r 0.012820243 _19_ MAC  --- 0 AODV 48 [0 ffffffff 2 800] [energy 499.995738 ei 0.002 es 0.000 et 0.001 er 0.002] ------- [2:255 -1:255 29 0] [0x2 2 1 [6 0] [19 4]] (REQUEST)
D 0.012930243 _8_ MAC  LQI 0 AODV 55 [0 ffffffff b 800] [energy 499.995465 ei 0.002 es 0.000 et 0.000 er 0.003] ------- [11:255 -1:255 28 0] [0x2 3 1 [6 0] [19 4]] (REQUEST)
D 0.012930258 _22_ MAC  LQI 0 AODV 55 [0 ffffffff b 800] [energy 499.995513 ei 0.002 es 0.000 et 0.001 er 0.002] ------- [11:255 -1:255 28 0] [0x2 3 1 [6 0] [19 4]] (REQUEST)
s 0.013396918 _8_ MAC  --- 0 AODV 55 [0 ffffffff 8 800] [energy 499.995369 ei 0.002 es 0.000 et 0.000 er 0.003] ------- [8:255 -1:255 29 0] [0x2 2 1 [6 0] [19 4]] (REQUEST)
N -t 0.013397 -n 22 -e 499.994717
N -t 0.013397 -n 12 -e 499.994621
N -t 0.013397 -n 11 -e 499.994312
N -t 0.013397 -n 7 -e 499.994620
N -t 0.013397 -n 2 -e 499.994515
N -t 0.013397 -n 19 -e 499.994605
r 0.013570262 _3_ MAC  --- 0 AODV 48 [0 ffffffff b 800] [energy 499.994474 ei 0.005 es 0.000 et 0.000 er 0.001] ------- [11:255 -1:255 28 0] [0x2 3 1 [6 0] [19 4]] (REQUEST)
s 0.013621233 _16_ MAC  --- 0 AODV 55 [0 ffffffff 10 800] [energy 499.994298 ei 0.005 es 0.000 et 0.000 er 0.001] ------- [16:255 -1:255 28 0] [0x2 3 1 [6 0] [19 4]] (REQUEST)
N -t 0.013621 -n 0 -e 499.993285
N -t 0.013621 -n 5 -e 499.993870
N -t 0.013621 -n 3 -e 499.993578
N -t 0.013621 -n 14 -e 499.993870
N -t 0.013621 -n 7 -e 499.994553
D 0.015348943 _7_ MAC  LQI 0 AODV 55 [0 ffffffff 8 800] [energy 499.994553 ei 0.002 es 0.000 et 0.001 er 0.003] ------- [8:255 -1:255 29 0] [0x2 2 1 [6 0] [19 4]] (REQUEST)
s 0.015655211 _20_ MAC  --- 0 AODV 55 [0 ffffffff 14 800] [energy 499.993382 ei 0.006 es 0.000 et 0.000 er 0.001] ------- [20:255 -1:255 29 0] [0x2 2 1 [6 0] [19 4]] (REQUEST)
N -t 0.015655 -n 4 -e 499.992370
N -t 0.015655 -n 21 -e 499.992370
N -t 0.015655 -n 15 -e 499.992370
N -t 0.015655 -n 19 -e 499.993882
r 0.015988935 _22_ MAC  --- 0 AODV 48 [0 ffffffff 8 800] [energy 499.994717 ei 0.002 es 0.000 et 0.001 er 0.003] ------- [8:255 -1:255 29 0] [0x2 2 1 [6 0] [19 4]] (REQUEST)
r 0.015988939 _12_ MAC  --- 0 AODV 48 [0 ffffffff 8 800] [energy 499.994573 ei 0.002 es 0.000 et 0.000 er 0.003] ------- [8:255 -1:255 29 0] [0x2 2 1 [6 0] [19 4]] (REQUEST)
r 0.015988943 _11_ MAC  --- 0 AODV 48 [0 ffffffff 8 800] [energy 499.994312 ei 0.003 es 0.000 et 0.001 er 0.002] ------- [8:255 -1:255 29 0] [0x2 2 1 [6 0] [19 4]] (REQUEST)
r 0.015988964 _2_ MAC  --- 0 AODV 48 [0 ffffffff 8 800] [energy 499.994515 ei 0.002 es 0.000 et 0.001 er 0.002] ------- [8:255 -1:255 29 0] [0x2 2 1 [6 0] [19 4]] (REQUEST)
r 0.015988965 _19_ MAC  --- 0 AODV 48 [0 ffffffff 8 800] [energy 499.993882 ei 0.003 es 0.000 et 0.001 er 0.003] ------- [8:255 -1:255 29 0] [0x2 2 1 [6 0] [19 4]] (REQUEST)
r 0.016213258 _0_ MAC  --- 0 AODV 48 [0 ffffffff 10 800] [energy 499.993285 ei 0.006 es 0.000 et 0.000 er 0.001] ------- [16:255 -1:255 28 0] [0x2 3 1 [6 0] [19 4]] (REQUEST)
r 0.016213263 _5_ MAC  --- 0 AODV 48 [0 ffffffff 10 800] [energy 499.993870 ei 0.004 es 0.000 et 0.000 er 0.002] ------- [16:255 -1:255 28 0] [0x2 3 1 [6 0] [19 4]] (REQUEST)
r 0.016213265 _3_ MAC  --- 0 AODV 48 [0 ffffffff 10 800] [energy 499.993578 ei 0.005 es 0.000 et 0.000 er 0.001] ------- [16:255 -1:255 28 0] [0x2 3 1 [6 0] [19 4]] (REQUEST)
r 0.016213273 _14_ MAC  --- 0 AODV 48 [0 ffffffff 10 800] [energy 499.993774 ei 0.004 es 0.000 et 0.000 er 0.002] ------- [16:255 -1:255 28 0] [0x2 3 1 [6 0] [19 4]] (REQUEST)
r 0.018247241 _4_ MAC  --- 0 AODV 48 [0 ffffffff 14 800] [energy 499.992370 ei 0.007 es 0.000 et 0.000 er 0.001] ------- [20:255 -1:255 29 0] [0x2 2 1 [6 0] [19 4]] (REQUEST)
r 0.018247258 _21_ MAC  --- 0 AODV 48 [0 ffffffff 14 800] [energy 499.992370 ei 0.007 es 0.000 et 0.000 er 0.001] ------- [20:255 -1:255 29 0] [0x2 2 1 [6 0] [19 4]] (REQUEST)
r 0.018247259 _15_ MAC  --- 0 AODV 48 [0 ffffffff 14 800] [energy 499.992370 ei 0.007 es 0.000 et 0.000 er 0.001] ------- [20:255 -1:255 29 0] [0x2 2 1 [6 0] [19 4]] (REQUEST)
r 0.018247260 _19_ MAC  --- 0 AODV 48 [0 ffffffff 14 800] [energy 499.993882 ei 0.003 es 0.000 et 0.001 er 0.003] ------- [20:255 -1:255 29 0] [0x2 2 1 [6 0] [19 4]] (REQUEST)
s 0.019450129 _5_ MAC  --- 0 AODV 55 [0 ffffffff 5 800] [energy 499.992260 ei 0.006 es 0.000 et 0.000 er 0.002] ------- [5:255 -1:255 28 0] [0x2 3 1 [6 0] [19 4]] (REQUEST)
N -t 0.019450 -n 14 -e 499.991444
N -t 0.019450 -n 2 -e 499.992084
N -t 0.019450 -n 7 -e 499.992223
N -t 0.019450 -n 16 -e 499.991295
N -t 0.019450 -n 0 -e 499.990955
N -t 0.019450 -n 23 -e 499.991876
s 0.021077143 _15_ MAC  --- 0 AODV 55 [0 ffffffff f 800] [energy 499.990942 ei 0.008 es 0.000 et 0.000 er 0.001] ------- [15:255 -1:255 28 0] [0x2 3 1 [6 0] [19 4]] (REQUEST)
N -t 0.021077 -n 4 -e 499.990222
N -t 0.021077 -n 13 -e 499.989930
N -t 0.021077 -n 20 -e 499.990563
s 0.021259899 _12_ MAC  --- 0 AODV 55 [0 ffffffff c 800] [energy 499.992048 ei 0.005 es 0.000 et 0.000 er 0.003] ------- [12:255 -1:255 29 0] [0x2 2 1 [6 0] [19 4]] (REQUEST)
N -t 0.021260 -n 22 -e 499.991472
N -t 0.021260 -n 8 -e 499.991452
N -t 0.021260 -n 7 -e 499.991680
N -t 0.021260 -n 19 -e 499.991652
N -t 0.021260 -n 23 -e 499.991333
N -t 0.021260 -n 2 -e 499.991541
N -t 0.021260 -n 11 -e 499.991067
D 0.021402157 _2_ MAC  LQI 0 AODV 55 [0 ffffffff 5 800] [energy 499.991541 ei 0.004 es 0.000 et 0.001 er 0.004] ------- [5:255 -1:255 28 0] [0x2 3 1 [6 0] [19 4]] (REQUEST)
r 0.022042138 _14_ MAC  --- 0 AODV 48 [0 ffffffff 5 800] [energy 499.991444 ei 0.006 es 0.000 et 0.000 er 0.002] ------- [5:255 -1:255 28 0] [0x2 3 1 [6 0] [19 4]] (REQUEST)
r 0.022042160 _16_ MAC  --- 0 AODV 48 [0 ffffffff 5 800] [energy 499.991295 ei 0.007 es 0.000 et 0.001 er 0.001] ------- [5:255 -1:255 28 0] [0x2 3 1 [6 0] [19 4]] (REQUEST)
r 0.022042165 _0_ MAC  --- 0 AODV 48 [0 ffffffff 5 800] [energy 499.990955 ei 0.008 es 0.000 et 0.000 er 0.001] ------- [5:255 -1:255 28 0] [0x2 3 1 [6 0] [19 4]] (REQUEST)
s 0.022807343 _0_ MAC  --- 0 AODV 55 [0 ffffffff 0 800] [energy 499.990457 ei 0.008 es 0.000 et 0.000 er 0.001] ------- [0:255 -1:255 27 0] [0x2 4 1 [6 0] [19 4]] (REQUEST)
N -t 0.022807 -n 16 -e 499.990077
N -t 0.022807 -n 5 -e 499.990370
N -t 0.022807 -n 14 -e 499.990226
D 0.023211924 _7_ MAC  LQI 0 AODV 55 [0 ffffffff c 800] [energy 499.991680 ei 0.004 es 0.000 et 0.001 er 0.004] ------- [12:255 -1:255 29 0] [0x2 2 1 [6 0] [19 4]] (REQUEST)
D 0.023211931 _23_ MAC  LQI 0 AODV 55 [0 ffffffff c 800] [energy 499.991333 ei 0.005 es 0.000 et 0.000 er 0.004] ------- [12:255 -1:255 29 0] [0x2 2 1 [6 0] [19 4]] (REQUEST)
r 0.023669173 _4_ MAC  --- 0 AODV 48 [0 ffffffff f 800] [energy 499.990222 ei 0.009 es 0.000 et 0.000 er 0.001] ------- [15:255 -1:255 28 0] [0x2 3 1 [6 0] [19 4]] (REQUEST)
r 0.023669178 _13_ MAC  --- 0 AODV 48 [0 ffffffff f 800] [energy 499.989930 ei 0.009 es 0.000 et 0.000 er 0.001] ------- [15:255 -1:255 28 0] [0x2 3 1 [6 0] [19 4]] (REQUEST)
r 0.023669191 _20_ MAC  --- 0 AODV 48 [0 ffffffff f 800] [energy 499.990563 ei 0.008 es 0.000 et 0.001 er 0.001] ------- [15:255 -1:255 28 0] [0x2 3 1 [6 0] [19 4]] (REQUEST)
r 0.023851912 _22_ MAC  --- 0 AODV 48 [0 ffffffff c 800] [energy 499.991472 ei 0.005 es 0.000 et 0.001 er 0.003] ------- [12:255 -1:255 29 0] [0x2 2 1 [6 0] [19 4]] (REQUEST)
r 0.023851920 _8_ MAC  --- 0 AODV 48 [0 ffffffff c 800] [energy 499.991452 ei 0.005 es 0.000 et 0.001 er 0.003] ------- [12:255 -1:255 29 0] [0x2 2 1 [6 0] [19 4]] (REQUEST)
r 0.023851925 _19_ MAC  --- 0 AODV 48 [0 ffffffff c 800] [energy 499.991652 ei 0.004 es 0.000 et 0.001 er 0.004] ------- [12:255 -1:255 29 0] [0x2 2 1 [6 0] [19 4]] (REQUEST)
r 0.023851944 _11_ MAC  --- 0 AODV 48 [0 ffffffff c 800] [energy 499.991067 ei 0.006 es 0.000 et 0.001 er 0.002] ------- [12:255 -1:255 29 0] [0x2 2 1 [6 0] [19 4]] (REQUEST)
s 0.024606726 _3_ MAC  --- 0 AODV 55 [0 ffffffff 3 800] [energy 499.989647 ei 0.009 es 0.000 et 0.000 er 0.001] ------- [3:255 -1:255 27 0] [0x2 4 1 [6 0] [19 4]] (REQUEST)
N -t 0.024607 -n 16 -e 499.989538
N -t 0.024607 -n 11 -e 499.989853
D 0.024759368 _16_ MAC  LQI 0 AODV 55 [0 ffffffff 0 800] [energy 499.989538 ei 0.007 es 0.000 et 0.001 er 0.002] ------- [0:255 -1:255 27 0] [0x2 4 1 [6 0] [19 4]] (REQUEST)
r 0.025399379 _5_ MAC  --- 0 AODV 48 [0 ffffffff 0 800] [energy 499.990370 ei 0.007 es 0.000 et 0.001 er 0.002] ------- [0:255 -1:255 27 0] [0x2 4 1 [6 0] [19 4]] (REQUEST)
r 0.025399385 _14_ MAC  --- 0 AODV 48 [0 ffffffff 0 800] [energy 499.990178 ei 0.007 es 0.000 et 0.000 er 0.003] ------- [0:255 -1:255 27 0] [0x2 4 1 [6 0] [19 4]] (REQUEST)
s 0.025572517 _21_ MAC  --- 0 AODV 55 [0 ffffffff 15 800] [energy 499.988920 ei 0.010 es 0.000 et 0.000 er 0.001] ------- [21:255 -1:255 28 0] [0x2 3 1 [6 0] [19 4]] (REQUEST)
N -t 0.025573 -n 24 -e 499.987907
N -t 0.025573 -n 20 -e 499.988833
s 0.025640923 _13_ MAC  --- 0 AODV 55 [0 ffffffff d 800] [energy 499.988889 ei 0.010 es 0.000 et 0.000 er 0.001] ------- [13:255 -1:255 27 0] [0x2 4 1 [6 0] [19 4]] (REQUEST)
N -t 0.025641 -n 15 -e 499.988510
N -t 0.025641 -n 9 -e 499.987876
N -t 0.025641 -n 10 -e 499.987876
r 0.027198769 _11_ MAC  --- 0 AODV 48 [0 ffffffff 3 800] [energy 499.989853 ei 0.007 es 0.000 et 0.001 er 0.003] ------- [3:255 -1:255 27 0] [0x2 4 1 [6 0] [19 4]] (REQUEST)
s 0.027414992 _4_ MAC  --- 0 AODV 55 [0 ffffffff 4 800] [energy 499.988383 ei 0.010 es 0.000 et 0.000 er 0.001] ------- [4:255 -1:255 28 0] [0x2 3 1 [6 0] [19 4]] (REQUEST)
N -t 0.027415 -n 20 -e 499.988280
N -t 0.027415 -n 15 -e 499.987977
r 0.028164545 _24_ MAC  --- 0 AODV 48 [0 ffffffff 15 800] [energy 499.987907 ei 0.012 es 0.000 et 0.000 er 0.001] ------- [21:255 -1:255 28 0] [0x2 3 1 [6 0] [19 4]] (REQUEST)
r 0.028232962 _9_ MAC  --- 0 AODV 48 [0 ffffffff d 800] [energy 499.987876 ei 0.012 es 0.000 et 0.000 er 0.001] ------- [13:255 -1:255 27 0] [0x2 4 1 [6 0] [19 4]] (REQUEST)
r 0.028232968 _10_ MAC  --- 0 AODV 48 [0 ffffffff d 800] [energy 499.987876 ei 0.012 es 0.000 et 0.000 er 0.001] ------- [13:255 -1:255 27 0] [0x2 4 1 [6 0] [19 4]] (REQUEST)
D 0.029367022 _20_ MAC  LQI 0 AODV 55 [0 ffffffff 4 800] [energy 499.988280 ei 0.009 es 0.000 et 0.001 er 0.002] ------- [4:255 -1:255 28 0] [0x2 3 1 [6 0] [19 4]] (REQUEST)
D 0.029367022 _15_ MAC  LQI 0 AODV 55 [0 ffffffff 4 800] [energy 499.987977 ei 0.010 es 0.000 et 0.001 er 0.002] ------- [4:255 -1:255 28 0] [0x2 3 1 [6 0] [19 4]] (REQUEST)
s 0.030782469 _24_ MAC  --- 0 AODV 55 [0 ffffffff 18 800] [energy 499.986575 ei 0.013 es 0.000 et 0.000 er 0.001] ------- [24:255 -1:255 27 0] [0x2 4 1 [6 0] [19 4]] (REQUEST)
N -t 0.030782 -n 21 -e 499.986196
N -t 0.030782 -n 6 -e 499.985562
s 0.032292858 _10_ MAC  --- 0 AODV 55 [0 ffffffff a 800] [energy 499.985895 ei 0.013 es 0.000 et 0.000 er 0.001] ------- [10:255 -1:255 26 0] [0x2 5 1 [6 0] [19 4]] (REQUEST)
N -t 0.032293 -n 9 -e 499.985175
N -t 0.032293 -n 13 -e 499.985516
s 0.032375422 _14_ MAC  --- 0 AODV 55 [0 ffffffff e 800] [energy 499.986885 ei 0.010 es 0.000 et 0.000 er 0.003] ------- [14:255 -1:255 28 0] [0x2 3 1 [6 0] [19 4]] (REQUEST)
N -t 0.032375 -n 5 -e 499.986357
N -t 0.032375 -n 2 -e 499.986832
N -t 0.032375 -n 7 -e 499.986971
N -t 0.032375 -n 16 -e 499.986335
N -t 0.032375 -n 0 -e 499.985772
N -t 0.032375 -n 23 -e 499.986624
r 0.033374497 _21_ MAC  --- 0 AODV 48 [0 ffffffff 18 800] [energy 499.986196 ei 0.012 es 0.000 et 0.001 er 0.001] ------- [24:255 -1:255 27 0] [0x2 4 1 [6 0] [19 4]] (REQUEST)
r 0.033374499 _6_ MAC  --- 0 AODV 48 [0 ffffffff 18 800] [energy 499.985562 ei 0.014 es 0.000 et 0.000 er 0.001] ------- [24:255 -1:255 27 0] [0x2 4 1 [6 0] [19 4]] (REQUEST)
r 0.034884886 _9_ MAC  --- 0 AODV 48 [0 ffffffff a 800] [energy 499.985127 ei 0.014 es 0.000 et 0.000 er 0.001] ------- [10:255 -1:255 26 0] [0x2 5 1 [6 0] [19 4]] (REQUEST)
r 0.034884903 _13_ MAC  --- 0 AODV 48 [0 ffffffff a 800] [energy 499.985516 ei 0.013 es 0.000 et 0.001 er 0.001] ------- [10:255 -1:255 26 0] [0x2 5 1 [6 0] [19 4]] (REQUEST)
r 0.034967431 _5_ MAC  --- 0 AODV 48 [0 ffffffff e 800] [energy 499.986357 ei 0.010 es 0.000 et 0.001 er 0.003] ------- [14:255 -1:255 28 0] [0x2 3 1 [6 0] [19 4]] (REQUEST)
r 0.034967446 _2_ MAC  --- 0 AODV 48 [0 ffffffff e 800] [energy 499.986832 ei 0.008 es 0.000 et 0.001 er 0.004] ------- [14:255 -1:255 28 0] [0x2 3 1 [6 0] [19 4]] (REQUEST)
r 0.034967455 _7_ MAC  --- 0 AODV 48 [0 ffffffff e 800] [energy 499.986971 ei 0.008 es 0.000 et 0.001 er 0.004] ------- [14:255 -1:255 28 0] [0x2 3 1 [6 0] [19 4]] (REQUEST)
r 0.034967462 _16_ MAC  --- 0 AODV 48 [0 ffffffff e 800] [energy 499.986335 ei 0.010 es 0.000 et 0.001 er 0.003] ------- [14:255 -1:255 28 0] [0x2 3 1 [6 0] [19 4]] (REQUEST)
r 0.034967464 _0_ MAC  --- 0 AODV 48 [0 ffffffff e 800] [energy 499.985772 ei 0.012 es 0.000 et 0.001 er 0.002] ------- [14:255 -1:255 28 0] [0x2 3 1 [6 0] [19 4]] (REQUEST)
r 0.034967464 _23_ MAC  --- 0 AODV 48 [0 ffffffff e 800] [energy 499.986624 ei 0.009 es 0.000 et 0.000 er 0.004] ------- [14:255 -1:255 28 0] [0x2 3 1 [6 0] [19 4]] (REQUEST)
s 0.035583435 _9_ MAC  --- 0 AODV 55 [0 ffffffff 9 800] [energy 499.984686 ei 0.014 es 0.000 et 0.000 er 0.001] ------- [9:255 -1:255 26 0] [0x2 5 1 [6 0] [19 4]] (REQUEST)
N -t 0.035583 -n 10 -e 499.984035
N -t 0.035583 -n 13 -e 499.984328
s 0.035964499 _6_ MAC  --- 0 ARP 35 [0 ffffffff 6 806] [energy 499.984243 ei 0.015 es 0.000 et 0.000 er 0.001] ------- [REQUEST 6/6 0/24]
N -t 0.035965 -n 24 -e 499.984056
r 0.037916529 _24_ MAC  --- 0 ARP 28 [0 ffffffff 6 806] [energy 499.984056 ei 0.014 es 0.000 et 0.001 er 0.001] ------- [REQUEST 6/6 0/24]
r 0.038175463 _10_ MAC  --- 0 AODV 48 [0 ffffffff 9 800] [energy 499.984035 ei 0.014 es 0.000 et 0.001 er 0.001] ------- [9:255 -1:255 26 0] [0x2 5 1 [6 0] [19 4]] (REQUEST)
r 0.038175474 _13_ MAC  --- 0 AODV 48 [0 ffffffff 9 800] [energy 499.984328 ei 0.013 es 0.000 et 0.001 er 0.002] ------- [9:255 -1:255 26 0] [0x2 5 1 [6 0] [19 4]] (REQUEST)
s 0.039841529 _24_ MAC  --- 0 ARP 35 [0 6 18 806] [energy 499.983036 ei 0.015 es 0.000 et 0.001 er 0.001] ------- [REPLY 24/24 6/6]
N -t 0.039842 -n 21 -e 499.982604
N -t 0.039842 -n 6 -e 499.982215
s 0.041345559 _6_ MAC  --- 0 ACK 5 [0 18 6 0] [energy 499.982215 ei 0.016 es 0.000 et 0.000 er 0.001] 
N -t 0.041346 -n 24 -e 499.982364
r 0.041697589 _24_ MAC  --- 0 ACK 5 [0 18 6 0] [energy 499.982364 ei 0.015 es 0.000 et 0.001 er 0.001] 
r 0.042337559 _6_ MAC  --- 0 ARP 28 [0 6 18 806] [energy 499.982023 ei 0.016 es 0.000 et 0.000 er 0.001] ------- [REPLY 24/24 6/6]
s 0.044582559 _6_ MAC  --- 0 AODV 51 [0 18 6 800] [energy 499.980859 ei 0.017 es 0.000 et 0.000 er 0.001] ------- [6:255 19:255 30 24] [0x4 1 [6 4] 10.000000] (REPLY)
N -t 0.044583 -n 24 -e 499.980519
s 0.046598589 _24_ MAC  --- 0 ACK 5 [0 6 18 0] [energy 499.980519 ei 0.017 es 0.000 et 0.001 er 0.002] 
N -t 0.046599 -n 21 -e 499.980048
N -t 0.046599 -n 6 -e 499.980034
r 0.046950619 _6_ MAC  --- 0 ACK 5 [0 6 18 0] [energy 499.980034 ei 0.018 es 0.000 et 0.001 er 0.001] 
r 0.047590589 _24_ MAC  --- 0 AODV 44 [0 18 6 800] [energy 499.980327 ei 0.017 es 0.000 et 0.001 er 0.002] ------- [6:255 19:255 30 24] [0x4 1 [6 4] 10.000000] (REPLY)
s 0.050180589 _24_ MAC  --- 0 ARP 35 [0 ffffffff 18 806] [energy 499.979008 ei 0.018 es 0.000 et 0.001 er 0.002] ------- [REQUEST 24/24 0/21]
N -t 0.050181 -n 21 -e 499.978201
N -t 0.050181 -n 6 -e 499.978187
r 0.052132617 _21_ MAC  --- 0 ARP 28 [0 ffffffff 18 806] [energy 499.978201 ei 0.019 es 0.000 et 0.001 er 0.002] ------- [REQUEST 24/24 0/21]
r 0.052132619 _6_ MAC  --- 0 ARP 28 [0 ffffffff 18 806] [energy 499.978187 ei 0.019 es 0.000 et 0.001 er 0.002] ------- [REQUEST 24/24 0/21]
s 0.054697617 _21_ MAC  --- 0 ARP 35 [0 18 15 806] [energy 499.976893 ei 0.020 es 0.000 et 0.001 er 0.002] ------- [REPLY 21/21 24/24]
N -t 0.054698 -n 24 -e 499.976692
N -t 0.054698 -n 20 -e 499.976488
s 0.056201646 _24_ MAC  --- 0 ACK 5 [0 15 18 0] [energy 499.976692 ei 0.020 es 0.000 et 0.001 er 0.002] 
N -t 0.056202 -n 21 -e 499.976221
N -t 0.056202 -n 6 -e 499.975962
r 0.056553674 _21_ MAC  --- 0 ACK 5 [0 15 18 0] [energy 499.976221 ei 0.020 es 0.000 et 0.001 er 0.002] 
r 0.057193646 _24_ MAC  --- 0 ARP 28 [0 18 15 806] [energy 499.976500 ei 0.020 es 0.000 et 0.002 er 0.002] ------- [REPLY 21/21 24/24]
s 0.059118646 _24_ MAC  --- 0 AODV 51 [0 15 18 800] [energy 499.975480 ei 0.021 es 0.000 et 0.002 er 0.002] ------- [6:255 19:255 29 21] [0x4 2 [6 4] 10.000000] (REPLY)
N -t 0.059119 -n 21 -e 499.974520
N -t 0.059119 -n 6 -e 499.974261
s 0.061134674 _21_ MAC  --- 0 ACK 5 [0 18 15 0] [energy 499.974520 ei 0.022 es 0.000 et 0.001 er 0.003] 
N -t 0.061135 -n 24 -e 499.974654
N -t 0.061135 -n 20 -e 499.974076
r 0.061486703 _24_ MAC  --- 0 ACK 5 [0 18 15 0] [energy 499.974654 ei 0.021 es 0.000 et 0.002 er 0.003] 
r 0.062126674 _21_ MAC  --- 0 AODV 44 [0 15 18 800] [energy 499.974328 ei 0.022 es 0.000 et 0.001 er 0.003] ------- [6:255 19:255 29 21] [0x4 2 [6 4] 10.000000] (REPLY)
s 0.062476674 _21_ MAC  --- 0 ARP 35 [0 ffffffff 15 806] [energy 499.974017 ei 0.022 es 0.000 et 0.001 er 0.003] ------- [REQUEST 21/21 0/20]
N -t 0.062477 -n 24 -e 499.973815
N -t 0.062477 -n 20 -e 499.973237
r 0.064428703 _24_ MAC  --- 0 ARP 28 [0 ffffffff 15 806] [energy 499.973815 ei 0.021 es 0.000 et 0.002 er 0.003] ------- [REQUEST 21/21 0/20]
r 0.064428721 _20_ MAC  --- 0 ARP 28 [0 ffffffff 15 806] [energy 499.973237 ei 0.023 es 0.000 et 0.001 er 0.003] ------- [REQUEST 21/21 0/20]
s 0.066673721 _20_ MAC  --- 0 ARP 35 [0 15 14 806] [energy 499.972073 ei 0.024 es 0.000 et 0.001 er 0.003] ------- [REPLY 20/20 21/21]
N -t 0.066674 -n 4 -e 499.970530
N -t 0.066674 -n 21 -e 499.971845
N -t 0.066674 -n 15 -e 499.970796
N -t 0.066674 -n 19 -e 499.971701
s 0.068177768 _21_ MAC  --- 0 ACK 5 [0 14 15 0] [energy 499.971845 ei 0.023 es 0.000 et 0.001 er 0.003] 
N -t 0.068178 -n 24 -e 499.971734
N -t 0.068178 -n 20 -e 499.971401
r 0.068529815 _20_ MAC  --- 0 ACK 5 [0 14 15 0] [energy 499.971401 ei 0.024 es 0.000 et 0.001 er 0.003] 
r 0.069169768 _21_ MAC  --- 0 ARP 28 [0 15 14 806] [energy 499.971653 ei 0.023 es 0.000 et 0.002 er 0.003] ------- [REPLY 20/20 21/21]
s 0.070454768 _21_ MAC  --- 0 AODV 51 [0 14 15 800] [energy 499.970921 ei 0.024 es 0.000 et 0.002 er 0.003] ------- [6:255 19:255 28 20] [0x4 3 [6 4] 10.000000] (REPLY)
N -t 0.070455 -n 24 -e 499.970321
N -t 0.070455 -n 20 -e 499.969988
s 0.072470815 _20_ MAC  --- 0 ACK 5 [0 15 14 0] [energy 499.969988 ei 0.025 es 0.000 et 0.001 er 0.004] 
N -t 0.072471 -n 4 -e 499.968406
N -t 0.072471 -n 21 -e 499.970095
N -t 0.072471 -n 15 -e 499.968672
N -t 0.072471 -n 19 -e 499.969577
r 0.072822862 _21_ MAC  --- 0 ACK 5 [0 15 14 0] [energy 499.970095 ei 0.024 es 0.000 et 0.002 er 0.004] 
r 0.073462815 _20_ MAC  --- 0 AODV 44 [0 14 15 800] [energy 499.969796 ei 0.025 es 0.000 et 0.001 er 0.004] ------- [6:255 19:255 28 20] [0x4 3 [6 4] 10.000000] (REPLY)
s 0.075092815 _20_ MAC  --- 0 ARP 35 [0 ffffffff 14 806] [energy 499.968909 ei 0.026 es 0.000 et 0.001 er 0.004] ------- [REQUEST 20/20 0/19]
N -t 0.075093 -n 4 -e 499.966991
N -t 0.075093 -n 21 -e 499.968680
N -t 0.075093 -n 15 -e 499.967257
N -t 0.075093 -n 19 -e 499.968162
r 0.077044845 _4_ MAC  --- 0 ARP 28 [0 ffffffff 14 806] [energy 499.966991 ei 0.030 es 0.000 et 0.001 er 0.002] ------- [REQUEST 20/20 0/19]
r 0.077044862 _21_ MAC  --- 0 ARP 28 [0 ffffffff 14 806] [energy 499.968680 ei 0.025 es 0.000 et 0.002 er 0.004] ------- [REQUEST 20/20 0/19]
r 0.077044863 _15_ MAC  --- 0 ARP 28 [0 ffffffff 14 806] [energy 499.967257 ei 0.029 es 0.000 et 0.001 er 0.003] ------- [REQUEST 20/20 0/19]
r 0.077044864 _19_ MAC  --- 0 ARP 28 [0 ffffffff 14 806] [energy 499.968162 ei 0.027 es 0.000 et 0.001 er 0.005] ------- [REQUEST 20/20 0/19]
s 0.079609864 _19_ MAC  --- 0 ARP 35 [0 14 13 806] [energy 499.966854 ei 0.028 es 0.000 et 0.001 er 0.005] ------- [REPLY 19/19 20/20]
N -t 0.079610 -n 23 -e 499.965853
N -t 0.079610 -n 12 -e 499.965603
N -t 0.079610 -n 22 -e 499.965699
N -t 0.079610 -n 2 -e 499.966061
N -t 0.079610 -n 7 -e 499.966200
N -t 0.079610 -n 8 -e 499.965679
N -t 0.079610 -n 20 -e 499.966593
s 0.081113913 _20_ MAC  --- 0 ACK 5 [0 13 14 0] [energy 499.966593 ei 0.027 es 0.000 et 0.001 er 0.005] 
N -t 0.081114 -n 4 -e 499.964766
N -t 0.081114 -n 21 -e 499.966456
N -t 0.081114 -n 15 -e 499.965032
N -t 0.081114 -n 19 -e 499.966182
r 0.081465962 _19_ MAC  --- 0 ACK 5 [0 13 14 0] [energy 499.966182 ei 0.028 es 0.000 et 0.001 er 0.005] 
r 0.082105913 _20_ MAC  --- 0 ARP 28 [0 14 13 806] [energy 499.966401 ei 0.027 es 0.000 et 0.002 er 0.005] ------- [REPLY 19/19 20/20]
s 0.082430913 _20_ MAC  --- 0 AODV 51 [0 13 14 800] [energy 499.966101 ei 0.028 es 0.000 et 0.002 er 0.005] ------- [6:255 19:255 27 19] [0x4 4 [6 4] 10.000000] (REPLY)
N -t 0.082431 -n 4 -e 499.963784
N -t 0.082431 -n 21 -e 499.965474
N -t 0.082431 -n 15 -e 499.964051
N -t 0.082431 -n 19 -e 499.965200
s 0.084446962 _19_ MAC  --- 0 ACK 5 [0 14 13 0] [energy 499.965200 ei 0.029 es 0.000 et 0.001 er 0.005] 
N -t 0.084447 -n 23 -e 499.964161
N -t 0.084447 -n 12 -e 499.963911
N -t 0.084447 -n 22 -e 499.964007
N -t 0.084447 -n 2 -e 499.964369
N -t 0.084447 -n 7 -e 499.964508
N -t 0.084447 -n 8 -e 499.963987
N -t 0.084447 -n 20 -e 499.965275
r 0.084799011 _20_ MAC  --- 0 ACK 5 [0 14 13 0] [energy 499.965275 ei 0.028 es 0.000 et 0.002 er 0.005] 
r 0.085438962 _19_ MAC  --- 0 AODV 44 [0 13 14 800] [energy 499.965008 ei 0.029 es 0.000 et 0.001 er 0.005] ------- [6:255 19:255 27 19] [0x4 4 [6 4] 10.000000] (REPLY)
s 0.088048962 _19_ MAC  --- 0 tcp 47 [0 14 13 800] [energy 499.963680 ei 0.030 es 0.000 et 0.001 er 0.005] ------- [19:0 6:0 30 20] [0 0] 0 0
N -t 0.088049 -n 23 -e 499.962190
N -t 0.088049 -n 12 -e 499.961940
N -t 0.088049 -n 22 -e 499.962036
N -t 0.088049 -n 2 -e 499.962398
N -t 0.088049 -n 7 -e 499.962537
N -t 0.088049 -n 8 -e 499.962016
N -t 0.088049 -n 20 -e 499.963304
s 0.089937011 _20_ MAC  --- 0 ACK 5 [0 13 14 0] [energy 499.963304 ei 0.029 es 0.000 et 0.002 er 0.005] 
N -t 0.089937 -n 4 -e 499.961122
N -t 0.089937 -n 21 -e 499.962812
N -t 0.089937 -n 15 -e 499.961388
N -t 0.089937 -n 19 -e 499.962893
r 0.090289060 _19_ MAC  --- 0 ACK 5 [0 13 14 0] [energy 499.962893 ei 0.030 es 0.000 et 0.002 er 0.005] 
r 0.090929011 _20_ MAC  --- 0 tcp 40 [0 14 13 800] [energy 499.963112 ei 0.029 es 0.000 et 0.002 er 0.005] ------- [19:0 6:0 30 20] [0 0] 1 0
s 0.092899011 _20_ MAC  --- 0 tcp 47 [0 15 14 800] [energy 499.962072 ei 0.030 es 0.000 et 0.002 er 0.005] ------- [19:0 6:0 29 21] [0 0] 1 0
N -t 0.092899 -n 4 -e 499.959439
N -t 0.092899 -n 21 -e 499.961128
N -t 0.092899 -n 15 -e 499.959705
N -t 0.092899 -n 19 -e 499.961210
s 0.094787058 _21_ MAC  --- 0 ACK 5 [0 14 15 0] [energy 499.961128 ei 0.031 es 0.000 et 0.002 er 0.005] 
N -t 0.094787 -n 24 -e 499.960087
N -t 0.094787 -n 20 -e 499.961285