v 0 eval {set sim_annotation {(at 0.0) cbr traffic from node 19 to node 6}}
s 0.000665000 _19_ MAC  --- 0 AODV 55 [0 ffffffff 13 800] [energy 19.999984 ei 0.000 es 0.000 et 0.000 er 0.000] ------- [19:255 -1:255 30 0] [0x2 1 1 [6 0] [19 4]] (REQUEST)
N -t 0.000665 -n 23 -e 19.999902
N -t 0.000665 -n 12 -e 19.999902
N -t 0.000665 -n 22 -e 19.999902
N -t 0.000665 -n 2 -e 19.999902
N -t 0.000665 -n 7 -e 19.999902
N -t 0.000665 -n 8 -e 19.999902
N -t 0.000665 -n 20 -e 19.999902
r 0.003257021 _23_ MAC  --- 0 AODV 48 [0 ffffffff 13 800] [energy 19.999902 ei 0.000 es 0.000 et 0.000 er 0.000] ------- [19:255 -1:255 30 0] [0x2 1 1 [6 0] [19 4]] (REQUEST)
r 0.003257026 _12_ MAC  --- 0 AODV 48 [0 ffffffff 13 800] [energy 19.999902 ei 0.000 es 0.000 et 0.000 er 0.000] ------- [19:255 -1:255 30 0] [0x2 1 1 [6 0] [19 4]] (REQUEST)
r 0.003257035 _22_ MAC  --- 0 AODV 48 [0 ffffffff 13 800] [energy 19.999902 ei 0.000 es 0.000 et 0.000 er 0.000] ------- [19:255 -1:255 30 0] [0x2 1 1 [6 0] [19 4]] (REQUEST)
r 0.003257036 _2_ MAC  --- 0 AODV 48 [0 ffffffff 13 800] [energy 19.999902 ei 0.000 es 0.000 et 0.000 er 0.000] ------- [19:255 -1:255 30 0] [0x2 1 1 [6 0] [19 4]] (REQUEST)
r 0.003257045 _7_ MAC  --- 0 AODV 48 [0 ffffffff 13 800] [energy 19.999902 ei 0.000 es 0.000 et 0.000 er 0.000] ------- [19:255 -1:255 30 0] [0x2 1 1 [6 0] [19 4]] (REQUEST)
r 0.003257047 _8_ MAC  --- 0 AODV 48 [0 ffffffff 13 800] [energy 19.999902 ei 0.000 es 0.000 et 0.000 er 0.000] ------- [19:255 -1:255 30 0] [0x2 1 1 [6 0] [19 4]] (REQUEST)
r 0.003257049 _20_ MAC  --- 0 AODV 48 [0 ffffffff 13 800] [energy 19.999902 ei 0.000 es 0.000 et 0.000 er 0.000] ------- [19:255 -1:255 30 0] [0x2 1 1 [6 0] [19 4]] (REQUEST)
s 0.003902622 _8_ MAC  --- 0 AODV 55 [0 ffffffff 8 800] [energy 19.999886 ei 0.000 es 0.000 et 0.000 er 0.000] ------- [8:255 -1:255 29 0] [0x2 2 1 [6 0] [19 4]] (REQUEST)
N -t 0.003903 -n 22 -e 19.999804
N -t 0.003903 -n 12 -e 19.999804
N -t 0.003903 -n 11 -e 19.999900
N -t 0.003903 -n 7 -e 19.999804
N -t 0.003903 -n 2 -e 19.999804
N -t 0.003903 -n 19 -e 19.991102
r 0.006494638 _22_ MAC  --- 0 AODV 48 [0 ffffffff 8 800] [energy 19.999804 ei 0.000 es 0.000 et 0.000 er 0.000] ------- [8:255 -1:255 29 0] [0x2 2 1 [6 0] [19 4]] (REQUEST)
r 0.006494643 _12_ MAC  --- 0 AODV 48 [0 ffffffff 8 800] [energy 19.999804 ei 0.000 es 0.000 et 0.000 er 0.000] ------- [8:255 -1:255 29 0] [0x2 2 1 [6 0] [19 4]] (REQUEST)
r 0.006494646 _11_ MAC  --- 0 AODV 48 [0 ffffffff 8 800] [energy 19.999900 ei 0.000 es 0.000 et 0.000 er 0.000] ------- [8:255 -1:255 29 0] [0x2 2 1 [6 0] [19 4]] (REQUEST)
r 0.006494646 _7_ MAC  --- 0 AODV 48 [0 ffffffff 8 800] [energy 19.999804 ei 0.000 es 0.000 et 0.000 er 0.000] ------- [8:255 -1:255 29 0] [0x2 2 1 [6 0] [19 4]] (REQUEST)
r 0.006494668 _2_ MAC  --- 0 AODV 48 [0 ffffffff 8 800] [energy 19.999804 ei 0.000 es 0.000 et 0.000 er 0.000] ------- [8:255 -1:255 29 0] [0x2 2 1 [6 0] [19 4]] (REQUEST)
r 0.006494669 _19_ MAC  --- 0 AODV 48 [0 ffffffff 8 800] [energy 19.991102 ei 0.000 es 0.000 et 0.009 er 0.000] ------- [8:255 -1:255 29 0] [0x2 2 1 [6 0] [19 4]] (REQUEST)
s 0.008165276 _22_ MAC  --- 0 AODV 55 [0 ffffffff 16 800] [energy 19.999787 ei 0.000 es 0.000 et 0.000 er 0.000] ------- [22:255 -1:255 29 0] [0x2 2 1 [6 0] [19 4]] (REQUEST)
N -t 0.008165 -n 12 -e 19.999705
N -t 0.008165 -n 8 -e 19.991003
N -t 0.008165 -n 7 -e 19.999689
N -t 0.008165 -n 19 -e 19.991003
N -t 0.008165 -n 11 -e 19.999802
N -t 0.008165 -n 23 -e 19.999802
N -t 0.008165 -n 2 -e 19.999705
s 0.008180219 _20_ MAC  --- 0 AODV 55 [0 ffffffff 14 800] [energy 19.999884 ei 0.000 es 0.000 et 0.000 er 0.000] ------- [20:255 -1:255 29 0] [0x2 2 1 [6 0] [19 4]] (REQUEST)
N -t 0.008180 -n 4 -e 19.999898
N -t 0.008180 -n 21 -e 19.999898
N -t 0.008180 -n 15 -e 19.999898
N -t 0.008180 -n 19 -e 19.991002
s 0.008203918 _7_ MAC  --- 0 AODV 55 [0 ffffffff 7 800] [energy 19.999689 ei 0.000 es 0.000 et 0.000 er 0.000] ------- [7:255 -1:255 29 0] [0x2 2 1 [6 0] [19 4]] (REQUEST)
N -t 0.008204 -n 8 -e 19.991001
N -t 0.008204 -n 12 -e 19.999703
N -t 0.008204 -n 2 -e 19.999703
N -t 0.008204 -n 5 -e 19.999898
N -t 0.008204 -n 22 -e 19.991001
N -t 0.008204 -n 14 -e 19.999898
N -t 0.008204 -n 11 -e 19.999800
N -t 0.008204 -n 23 -e 19.999800
N -t 0.008204 -n 16 -e 19.999898
N -t 0.008204 -n 19 -e 19.991001
D 0.010117289 _12_ MAC  LQI 0 AODV 55 [0 ffffffff 16 800] [energy 19.999703 ei 0.000 es 0.000 et 0.000 er 0.000] ------- [22:255 -1:255 29 0] [0x2 2 1 [6 0] [19 4]] (REQUEST)
D 0.010117293 _8_ MAC  LQI 0 AODV 55 [0 ffffffff 16 800] [energy 19.991001 ei 0.000 es 0.000 et 0.009 er 0.000] ------- [22:255 -1:255 29 0] [0x2 2 1 [6 0] [19 4]] (REQUEST)
D 0.010117311 _19_ MAC  LQI 0 AODV 55 [0 ffffffff 16 800] [energy 19.991001 ei 0.000 es 0.000 et 0.009 er 0.000] ------- [22:255 -1:255 29 0] [0x2 2 1 [6 0] [19 4]] (REQUEST)
D 0.010155944 _2_ MAC  LQI 0 AODV 55 [0 ffffffff 7 800] [energy 19.999703 ei 0.000 es 0.000 et 0.000 er 0.000] ------- [7:255 -1:255 29 0] [0x2 2 1 [6 0] [19 4]] (REQUEST)
D 0.010155956 _11_ MAC  LQI 0 AODV 55 [0 ffffffff 7 800] [energy 19.999800 ei 0.000 es 0.000 et 0.000 er 0.000] ------- [7:255 -1:255 29 0] [0x2 2 1 [6 0] [19 4]] (REQUEST)
D 0.010155957 _23_ MAC  LQI 0 AODV 55 [0 ffffffff 7 800] [energy 19.999800 ei 0.000 es 0.000 et 0.000 er 0.000] ------- [7:255 -1:255 29 0] [0x2 2 1 [6 0] [19 4]] (REQUEST)
s 0.010675241 _23_ MAC  --- 0 AODV 55 [0 ffffffff 17 800] [energy 19.999784 ei 0.000 es 0.000 et 0.000 er 0.000] ------- [23:255 -1:255 29 0] [0x2 2 1 [6 0] [19 4]] (REQUEST)
N -t 0.010675 -n 2 -e 19.999605
N -t 0.010675 -n 19 -e 19.990903
N -t 0.010675 -n 12 -e 19.999605
N -t 0.010675 -n 7 -e 19.999418
N -t 0.010675 -n 14 -e 19.999800
N -t 0.010675 -n 22 -e 19.990903
N -t 0.010675 -n 5 -e 19.999800
r 0.010772249 _4_ MAC  --- 0 AODV 48 [0 ffffffff 14 800] [energy 19.999898 ei 0.000 es 0.000 et 0.000 er 0.000] ------- [20:255 -1:255 29 0] [0x2 2 1 [6 0] [19 4]] (REQUEST)
r 0.010772266 _21_ MAC  --- 0 AODV 48 [0 ffffffff 14 800] [energy 19.999898 ei 0.000 es 0.000 et 0.000 er 0.000] ------- [20:255 -1:255 29 0] [0x2 2 1 [6 0] [19 4]] (REQUEST)
r 0.010772267 _15_ MAC  --- 0 AODV 48 [0 ffffffff 14 800] [energy 19.999898 ei 0.000 es 0.000 et 0.000 er 0.000] ------- [20:255 -1:255 29 0] [0x2 2 1 [6 0] [19 4]] (REQUEST)
r 0.010795948 _5_ MAC  --- 0 AODV 48 [0 ffffffff 7 800] [energy 19.999800 ei 0.000 es 0.000 et 0.000 er 0.000] ------- [7:255 -1:255 29 0] [0x2 2 1 [6 0] [19 4]] (REQUEST)
r 0.010795952 _14_ MAC  --- 0 AODV 48 [0 ffffffff 7 800] [energy 19.999800 ei 0.000 es 0.000 et 0.000 er 0.000] ------- [7:255 -1:255 29 0] [0x2 2 1 [6 0] [19 4]] (REQUEST)
r 0.010795961 _16_ MAC  --- 0 AODV 48 [0 ffffffff 7 800] [energy 19.999898 ei 0.000 es 0.000 et 0.000 er 0.000] ------- [7:255 -1:255 29 0] [0x2 2 1 [6 0] [19 4]] (REQUEST)
s 0.012695835 _21_ MAC  --- 0 AODV 55 [0 ffffffff 15 800] [energy 19.999881 ei 0.000 es 0.000 et 0.000 er 0.000] ------- [21:255 -1:255 28 0] [0x2 3 1 [6 0] [19 4]] (REQUEST)
N -t 0.012696 -n 24 -e 19.999896
N -t 0.012696 -n 20 -e 19.991001
r 0.013267260 _2_ MAC  --- 0 AODV 48 [0 ffffffff 17 800] [energy 19.999573 ei 0.000 es 0.000 et 0.000 er 0.000] ------- [23:255 -1:255 29 0] [0x2 2 1 [6 0] [19 4]] (REQUEST)
r 0.013267262 _19_ MAC  --- 0 AODV 48 [0 ffffffff 17 800] [energy 19.990903 ei 0.000 es 0.000 et 0.009 er 0.000] ------- [23:255 -1:255 29 0] [0x2 2 1 [6 0] [19 4]] (REQUEST)
r 0.013267273 _12_ MAC  --- 0 AODV 48 [0 ffffffff 17 800] [energy 19.999605 ei 0.000 es 0.000 et 0.000 er 0.000] ------- [23:255 -1:255 29 0] [0x2 2 1 [6 0] [19 4]] (REQUEST)
r 0.013267280 _7_ MAC  --- 0 AODV 48 [0 ffffffff 17 800] [energy 19.999418 ei 0.000 es 0.000 et 0.000 er 0.000] ------- [23:255 -1:255 29 0] [0x2 2 1 [6 0] [19 4]] (REQUEST)
r 0.013267283 _14_ MAC  --- 0 AODV 48 [0 ffffffff 17 800] [energy 19.999800 ei 0.000 es 0.000 et 0.000 er 0.000] ------- [23:255 -1:255 29 0] [0x2 2 1 [6 0] [19 4]] (REQUEST)
r 0.013267286 _22_ MAC  --- 0 AODV 48 [0 ffffffff 17 800] [energy 19.990903 ei 0.000 es 0.000 et 0.009 er 0.000] ------- [23:255 -1:255 29 0] [0x2 2 1 [6 0] [19 4]] (REQUEST)
r 0.013267289 _5_ MAC  --- 0 AODV 48 [0 ffffffff 17 800] [energy 19.999769 ei 0.000 es 0.000 et 0.000 er 0.000] ------- [23:255 -1:255 29 0] [0x2 2 1 [6 0] [19 4]] (REQUEST)
s 0.014313583 _12_ MAC  --- 0 AODV 55 [0 ffffffff c 800] [energy 19.999589 ei 0.000 es 0.000 et 0.000 er 0.000] ------- [12:255 -1:255 29 0] [0x2 2 1 [6 0] [19 4]] (REQUEST)
N -t 0.014314 -n 22 -e 19.990805
N -t 0.014314 -n 8 -e 19.990901
N -t 0.014314 -n 7 -e 19.999319
N -t 0.014314 -n 19 -e 19.990805
N -t 0.014314 -n 23 -e 19.990901
N -t 0.014314 -n 2 -e 19.999475
N -t 0.014314 -n 11 -e 19.999700
s 0.014355282 _5_ MAC  --- 0 AODV 55 [0 ffffffff 5 800] [energy 19.999752 ei 0.000 es 0.000 et 0.000 er 0.000] ------- [5:255 -1:255 28 0] [0x2 3 1 [6 0] [19 4]] (REQUEST)
N -t 0.014355 -n 14 -e 19.999702
N -t 0.014355 -n 2 -e 19.999473
N -t 0.014355 -n 7 -e 19.999317
N -t 0.014355 -n 16 -e 19.999799
N -t 0.014355 -n 0 -e 19.999895
N -t 0.014355 -n 23 -e 19.990899
r 0.015287863 _24_ MAC  --- 0 AODV 48 [0 ffffffff 15 800] [energy 19.999896 ei 0.000 es 0.000 et 0.000 er 0.000] ------- [21:255 -1:255 28 0] [0x2 3 1 [6 0] [19 4]] (REQUEST)
r 0.015287882 _20_ MAC  --- 0 AODV 48 [0 ffffffff 15 800] [energy 19.991001 ei 0.000 es 0.000 et 0.009 er 0.000] ------- [21:255 -1:255 28 0] [0x2 3 1 [6 0] [19 4]] (REQUEST)
D 0.016265608 _7_ MAC  LQI 0 AODV 55 [0 ffffffff c 800] [energy 19.999317 ei 0.000 es 0.000 et 0.000 er 0.001] ------- [12:255 -1:255 29 0] [0x2 2 1 [6 0] [19 4]] (REQUEST)
D 0.016265615 _23_ MAC  LQI 0 AODV 55 [0 ffffffff c 800] [energy 19.990899 ei 0.000 es 0.000 et 0.009 er 0.000] ------- [12:255 -1:255 29 0] [0x2 2 1 [6 0] [19 4]] (REQUEST)
D 0.016307310 _2_ MAC  LQI 0 AODV 55 [0 ffffffff 5 800] [energy 19.999441 ei 0.000 es 0.000 et 0.000 er 0.001] ------- [5:255 -1:255 28 0] [0x2 3 1 [6 0] [19 4]] (REQUEST)
r 0.016905596 _22_ MAC  --- 0 AODV 48 [0 ffffffff c 800] [energy 19.990805 ei 0.000 es 0.000 et 0.009 er 0.000] ------- [12:255 -1:255 29 0] [0x2 2 1 [6 0] [19 4]] (REQUEST)
r 0.016905604 _8_ MAC  --- 0 AODV 48 [0 ffffffff c 800] [energy 19.990901 ei 0.000 es 0.000 et 0.009 er 0.000] ------- [12:255 -1:255 29 0] [0x2 2 1 [6 0] [19 4]] (REQUEST)
r 0.016905609 _19_ MAC  --- 0 AODV 48 [0 ffffffff c 800] [energy 19.990805 ei 0.000 es 0.000 et 0.009 er 0.000] ------- [12:255 -1:255 29 0] [0x2 2 1 [6 0] [19 4]] (REQUEST)
r 0.016905628 _11_ MAC  --- 0 AODV 48 [0 ffffffff c 800] [energy 19.999636 ei 0.000 es 0.000 et 0.000 er 0.000] ------- [12:255 -1:255 29 0] [0x2 2 1 [6 0] [19 4]] (REQUEST)
r 0.016947291 _14_ MAC  --- 0 AODV 48 [0 ffffffff 5 800] [energy 19.999702 ei 0.000 es 0.000 et 0.000 er 0.000] ------- [5:255 -1:255 28 0] [0x2 3 1 [6 0] [19 4]] (REQUEST)
r 0.016947313 _16_ MAC  --- 0 AODV 48 [0 ffffffff 5 800] [energy 19.999799 ei 0.000 es 0.000 et 0.000 er 0.000] ------- [5:255 -1:255 28 0] [0x2 3 1 [6 0] [19 4]] (REQUEST)
r 0.016947318 _0_ MAC  --- 0 AODV 48 [0 ffffffff 5 800] [energy 19.999895 ei 0.000 es 0.000 et 0.000 er 0.000] ------- [5:255 -1:255 28 0] [0x2 3 1 [6 0] [19 4]] (REQUEST)
s 0.017454947 _16_ MAC  --- 0 AODV 55 [0 ffffffff 10 800] [energy 19.999782 ei 0.000 es 0.000 et 0.000 er 0.000] ------- [16:255 -1:255 28 0] [0x2 3 1 [6 0] [19 4]] (REQUEST)
N -t 0.017455 -n 0 -e 19.999797
N -t 0.017455 -n 5 -e 19.990870
N -t 0.017455 -n 3 -e 19.999894
N -t 0.017455 -n 14 -e 19.999604
N -t 0.017455 -n 7 -e 19.999219
s 0.017751433 _2_ MAC  --- 0 AODV 55 [0 ffffffff 2 800] [energy 19.999425 ei 0.000 es 0.000 et 0.000 er 0.001] ------- [2:255 -1:255 29 0] [0x2 2 1 [6 0] [19 4]] (REQUEST)
N -t 0.017751 -n 23 -e 19.990801
N -t 0.017751 -n 14 -e 19.999589
N -t 0.017751 -n 7 -e 19.999204
N -t 0.017751 -n 5 -e 19.990855
N -t 0.017751 -n 12 -e 19.990706
N -t 0.017751 -n 19 -e 19.990706
N -t 0.017751 -n 8 -e 19.990803
N -t 0.017751 -n 22 -e 19.990706
s 0.017979484 _15_ MAC  --- 0 AODV 55 [0 ffffffff f 800] [energy 19.999879 ei 0.000 es 0.000 et 0.000 er 0.000] ------- [15:255 -1:255 28 0] [0x2 3 1 [6 0] [19 4]] (REQUEST)
N -t 0.017980 -n 4 -e 19.999797
N -t 0.017980 -n 13 -e 19.999893
N -t 0.017980 -n 20 -e 19.990901
D 0.019703457 _14_ MAC  LQI 0 AODV 55 [0 ffffffff 2 800] [energy 19.999589 ei 0.000 es 0.000 et 0.000 er 0.000] ------- [2:255 -1:255 29 0] [0x2 2 1 [6 0] [19 4]] (REQUEST)
D 0.019703459 _7_ MAC  LQI 0 AODV 55 [0 ffffffff 2 800] [energy 19.999204 ei 0.000 es 0.000 et 0.000 er 0.001] ------- [2:255 -1:255 29 0] [0x2 2 1 [6 0] [19 4]] (REQUEST)
D 0.019703462 _5_ MAC  LQI 0 AODV 55 [0 ffffffff 2 800] [energy 19.990855 ei 0.000 es 0.000 et 0.009 er 0.000] ------- [2:255 -1:255 29 0] [0x2 2 1 [6 0] [19 4]] (REQUEST)
r 0.020046972 _0_ MAC  --- 0 AODV 48 [0 ffffffff 10 800] [energy 19.999797 ei 0.000 es 0.000 et 0.000 er 0.000] ------- [16:255 -1:255 28 0] [0x2 3 1 [6 0] [19 4]] (REQUEST)
r 0.020046980 _3_ MAC  --- 0 AODV 48 [0 ffffffff 10 800] [energy 19.999894 ei 0.000 es 0.000 et 0.000 er 0.000] ------- [16:255 -1:255 28 0] [0x2 3 1 [6 0] [19 4]] (REQUEST)
s 0.020137006 _14_ MAC  --- 0 AODV 55 [0 ffffffff e 800] [energy 19.999573 ei 0.000 es 0.000 et 0.000 er 0.000] ------- [14:255 -1:255 28 0] [0x2 3 1 [6 0] [19 4]] (REQUEST)
N -t 0.020137 -n 5 -e 19.990757
N -t 0.020137 -n 2 -e 19.990543
N -t 0.020137 -n 7 -e 19.999106
N -t 0.020137 -n 16 -e 19.990900
N -t 0.020137 -n 0 -e 19.999699
N -t 0.020137 -n 23 -e 19.990703
r 0.020343453 _23_ MAC  --- 0 AODV 48 [0 ffffffff 2 800] [energy 19.990703 ei 0.000 es 0.000 et 0.009 er 0.001] ------- [2:255 -1:255 29 0] [0x2 2 1 [6 0] [19 4]] (REQUEST)
r 0.020343467 _12_ MAC  --- 0 AODV 48 [0 ffffffff 2 800] [energy 19.990706 ei 0.000 es 0.000 et 0.009 er 0.001] ------- [2:255 -1:255 29 0] [0x2 2 1 [6 0] [19 4]] (REQUEST)
r 0.020343470 _19_ MAC  --- 0 AODV 48 [0 ffffffff 2 800] [energy 19.990706 ei 0.000 es 0.000 et 0.009 er 0.001] ------- [2:255 -1:255 29 0] [0x2 2 1 [6 0] [19 4]] (REQUEST)
r 0.020343479 _8_ MAC  --- 0 AODV 48 [0 ffffffff 2 800] [energy 19.990803 ei 0.000 es 0.000 et 0.009 er 0.000] ------- [2:255 -1:255 29 0] [0x2 2 1 [6 0] [19 4]] (REQUEST)
r 0.020343479 _22_ MAC  --- 0 AODV 48 [0 ffffffff 2 800] [energy 19.990706 ei 0.000 es 0.000 et 0.009 er 0.001] ------- [2:255 -1:255 29 0] [0x2 2 1 [6 0] [19 4]] (REQUEST)
r 0.020571514 _4_ MAC  --- 0 AODV 48 [0 ffffffff f 800] [energy 19.999797 ei 0.000 es 0.000 et 0.000 er 0.000] ------- [15:255 -1:255 28 0] [0x2 3 1 [6 0] [19 4]] (REQUEST)
r 0.020571518 _13_ MAC  --- 0 AODV 48 [0 ffffffff f 800] [energy 19.999893 ei 0.000 es 0.000 et 0.000 er 0.000] ------- [15:255 -1:255 28 0] [0x2 3 1 [6 0] [19 4]] (REQUEST)
r 0.020571532 _20_ MAC  --- 0 AODV 48 [0 ffffffff f 800] [energy 19.990901 ei 0.000 es 0.000 et 0.009 er 0.000] ------- [15:255 -1:255 28 0] [0x2 3 1 [6 0] [19 4]] (REQUEST)
r 0.022729016 _5_ MAC  --- 0 AODV 48 [0 ffffffff e 800] [energy 19.990757 ei 0.000 es 0.000 et 0.009 er 0.000] ------- [14:255 -1:255 28 0] [0x2 3 1 [6 0] [19 4]] (REQUEST)
r 0.022729030 _2_ MAC  --- 0 AODV 48 [0 ffffffff e 800] [energy 19.990543 ei 0.000 es 0.000 et 0.009 er 0.001] ------- [14:255 -1:255 28 0] [0x2 3 1 [6 0] [19 4]] (REQUEST)
r 0.022729040 _7_ MAC  --- 0 AODV 48 [0 ffffffff e 800] [energy 19.999106 ei 0.000 es 0.000 et 0.000 er 0.001] ------- [14:255 -1:255 28 0] [0x2 3 1 [6 0] [19 4]] (REQUEST)
r 0.022729047 _16_ MAC  --- 0 AODV 48 [0 ffffffff e 800] [energy 19.990900 ei 0.000 es 0.000 et 0.009 er 0.000] ------- [14:255 -1:255 28 0] [0x2 3 1 [6 0] [19 4]] (REQUEST)
r 0.022729048 _0_ MAC  --- 0 AODV 48 [0 ffffffff e 800] [energy 19.999699 ei 0.000 es 0.000 et 0.000 er 0.000] ------- [14:255 -1:255 28 0] [0x2 3 1 [6 0] [19 4]] (REQUEST)
r 0.022729049 _23_ MAC  --- 0 AODV 48 [0 ffffffff e 800] [energy 19.990703 ei 0.000 es 0.000 et 0.009 er 0.001] ------- [14:255 -1:255 28 0] [0x2 3 1 [6 0] [19 4]] (REQUEST)
s 0.023142316 _4_ MAC  --- 0 AODV 55 [0 ffffffff 4 800] [energy 19.999779 ei 0.000 es 0.000 et 0.000 er 0.000] ------- [4:255 -1:255 28 0] [0x2 3 1 [6 0] [19 4]] (REQUEST)
N -t 0.023142 -n 20 -e 19.990802
N -t 0.023142 -n 15 -e 19.990995
s 0.025044326 _24_ MAC  --- 0 AODV 55 [0 ffffffff 18 800] [energy 19.999875 ei 0.000 es 0.000 et 0.000 er 0.000] ------- [24:255 -1:255 27 0] [0x2 4 1 [6 0] [19 4]] (REQUEST)
N -t 0.025044 -n 21 -e 19.990994
N -t 0.025044 -n 6 -e 19.999890
r 0.025734346 _20_ MAC  --- 0 AODV 48 [0 ffffffff 4 800] [energy 19.990802 ei 0.000 es 0.000 et 0.009 er 0.000] ------- [4:255 -1:255 28 0] [0x2 3 1 [6 0] [19 4]] (REQUEST)
r 0.025734346 _15_ MAC  --- 0 AODV 48 [0 ffffffff 4 800] [energy 19.990995 ei 0.000 es 0.000 et 0.009 er 0.000] ------- [4:255 -1:255 28 0] [0x2 3 1 [6 0] [19 4]] (REQUEST)
s 0.025868808 _11_ MAC  --- 0 AODV 55 [0 ffffffff b 800] [energy 19.999616 ei 0.000 es 0.000 et 0.000 er 0.000] ------- [11:255 -1:255 28 0] [0x2 3 1 [6 0] [19 4]] (REQUEST)
N -t 0.025869 -n 8 -e 19.990702
N -t 0.025869 -n 7 -e 19.999007
N -t 0.025869 -n 22 -e 19.990606
N -t 0.025869 -n 3 -e 19.999793
N -t 0.025869 -n 12 -e 19.990606
s 0.026433141 _0_ MAC  --- 0 AODV 55 [0 ffffffff 0 800] [energy 19.999681 ei 0.000 es 0.000 et 0.000 er 0.000] ------- [0:255 -1:255 27 0] [0x2 4 1 [6 0] [19 4]] (REQUEST)
N -t 0.026433 -n 16 -e 19.990800
N -t 0.026433 -n 5 -e 19.990657
N -t 0.026433 -n 14 -e 19.990689
s 0.026925294 _13_ MAC  --- 0 AODV 55 [0 ffffffff d 800] [energy 19.999874 ei 0.000 es 0.000 et 0.000 er 0.000] ------- [13:255 -1:255 27 0] [0x2 4 1 [6 0] [19 4]] (REQUEST)
N -t 0.026925 -n 15 -e 19.990897
N -t 0.026925 -n 9 -e 19.999889
N -t 0.026925 -n 10 -e 19.999889
r 0.027636355 _21_ MAC  --- 0 AODV 48 [0 ffffffff 18 800] [energy 19.990994 ei 0.000 es 0.000 et 0.009 er 0.000] ------- [24:255 -1:255 27 0] [0x2 4 1 [6 0] [19 4]] (REQUEST)
r 0.027636357 _6_ MAC  --- 0 AODV 48 [0 ffffffff 18 800] [energy 19.999890 ei 0.000 es 0.000 et 0.000 er 0.000] ------- [24:255 -1:255 27 0] [0x2 4 1 [6 0] [19 4]] (REQUEST)
r 0.028460833 _8_ MAC  --- 0 AODV 48 [0 ffffffff b 800] [energy 19.990702 ei 0.000 es 0.000 et 0.009 er 0.001] ------- [11:255 -1:255 28 0] [0x2 3 1 [6 0] [19 4]] (REQUEST)
r 0.028460846 _7_ MAC  --- 0 AODV 48 [0 ffffffff b 800] [energy 19.999007 ei 0.000 es 0.000 et 0.000 er 0.001] ------- [11:255 -1:255 28 0] [0x2 3 1 [6 0] [19 4]] (REQUEST)
r 0.028460848 _22_ MAC  --- 0 AODV 48 [0 ffffffff b 800] [energy 19.990606 ei 0.000 es 0.000 et 0.009 er 0.001] ------- [11:255 -1:255 28 0] [0x2 3 1 [6 0] [19 4]] (REQUEST)
r 0.028460852 _3_ MAC  --- 0 AODV 48 [0 ffffffff b 800] [energy 19.999777 ei 0.000 es 0.000 et 0.000 er 0.000] ------- [11:255 -1:255 28 0] [0x2 3 1 [6 0] [19 4]] (REQUEST)
r 0.028460854 _12_ MAC  --- 0 AODV 48 [0 ffffffff b 800] [energy 19.990606 ei 0.000 es 0.000 et 0.009 er 0.001] ------- [11:255 -1:255 28 0] [0x2 3 1 [6 0] [19 4]] (REQUEST)
s 0.028626357 _6_ MAC  --- 0 ARP 35 [0 ffffffff 6 806] [energy 19.999873 ei 0.000 es 0.000 et 0.000 er 0.000] ------- [REQUEST 6/6 0/24]
N -t 0.028626 -n 24 -e 19.991025
s 0.028652239 _3_ MAC  --- 0 AODV 55 [0 ffffffff 3 800] [energy 19.999777 ei 0.000 es 0.000 et 0.000 er 0.000] ------- [3:255 -1:255 27 0] [0x2 4 1 [6 0] [19 4]] (REQUEST)
N -t 0.028652 -n 16 -e 19.990703
N -t 0.028652 -n 11 -e 19.990734
r 0.029025166 _16_ MAC  --- 0 AODV 48 [0 ffffffff 0 800] [energy 19.990703 ei 0.000 es 0.000 et 0.009 er 0.001] ------- [0:255 -1:255 27 0] [0x2 4 1 [6 0] [19 4]] (REQUEST)
r 0.029025177 _5_ MAC  --- 0 AODV 48 [0 ffffffff 0 800] [energy 19.990657 ei 0.000 es 0.000 et 0.009 er 0.001] ------- [0:255 -1:255 27 0] [0x2 4 1 [6 0] [19 4]] (REQUEST)
r 0.029025183 _14_ MAC  --- 0 AODV 48 [0 ffffffff 0 800] [energy 19.990689 ei 0.000 es 0.000 et 0.009 er 0.001] ------- [0:255 -1:255 27 0] [0x2 4 1 [6 0] [19 4]] (REQUEST)
r 0.029517328 _15_ MAC  --- 0 AODV 48 [0 ffffffff d 800] [energy 19.990897 ei 0.000 es 0.000 et 0.009 er 0.000] ------- [13:255 -1:255 27 0] [0x2 4 1 [6 0] [19 4]] (REQUEST)
r 0.029517333 _9_ MAC  --- 0 AODV 48 [0 ffffffff d 800] [energy 19.999889 ei 0.000 es 0.000 et 0.000 er 0.000] ------- [13:255 -1:255 27 0] [0x2 4 1 [6 0] [19 4]] (REQUEST)
r 0.029517339 _10_ MAC  --- 0 AODV 48 [0 ffffffff d 800] [energy 19.999889 ei 0.000 es 0.000 et 0.000 er 0.000] ------- [13:255 -1:255 27 0] [0x2 4 1 [6 0] [19 4]] (REQUEST)
r 0.030578387 _24_ MAC  --- 0 ARP 28 [0 ffffffff 6 806] [energy 19.991025 ei 0.000 es 0.000 et 0.009 er 0.000] ------- [REQUEST 6/6 0/24]
r 0.031244272 _16_ MAC  --- 0 AODV 48 [0 ffffffff 3 800] [energy 19.990703 ei 0.000 es 0.000 et 0.009 er 0.001] ------- [3:255 -1:255 27 0] [0x2 4 1 [6 0] [19 4]] (REQUEST)
r 0.031244283 _11_ MAC  --- 0 AODV 48 [0 ffffffff 3 800] [energy 19.990734 ei 0.000 es 0.000 et 0.009 er 0.000] ------- [3:255 -1:255 27 0] [0x2 4 1 [6 0] [19 4]] (REQUEST)
s 0.032823387 _24_ MAC  --- 0 ARP 35 [0 6 18 806] [energy 19.991007 ei 0.000 es 0.000 et 0.009 er 0.000] ------- [REPLY 24/24 6/6]
N -t 0.032823 -n 21 -e 19.990926
N -t 0.032823 -n 6 -e 19.993902
s 0.034327417 _6_ MAC  --- 0 ACK 5 [0 18 6 0] [energy 19.993902 ei 0.000 es 0.000 et 0.006 er 0.000] 
N -t 0.034327 -n 24 -e 19.985086
r 0.034679447 _24_ MAC  --- 0 ACK 5 [0 18 6 0] [energy 19.985086 ei 0.000 es 0.000 et 0.015 er 0.000] 
r 0.035319417 _6_ MAC  --- 0 ARP 28 [0 6 18 806] [energy 19.992318 ei 0.000 es 0.000 et 0.007 er 0.000] ------- [REPLY 24/24 6/6]
s 0.035964417 _6_ MAC  --- 0 AODV 51 [0 18 6 800] [energy 19.992302 ei 0.000 es 0.000 et 0.007 er 0.000] ------- [6:255 19:255 30 24] [0x4 1 [6 4] 10.000000] (REPLY)
N -t 0.035964 -n 24 -e 19.984994
s 0.036844231 _9_ MAC  --- 0 AODV 55 [0 ffffffff 9 800] [energy 19.999869 ei 0.000 es 0.000 et 0.000 er 0.000] ------- [9:255 -1:255 26 0] [0x2 5 1 [6 0] [19 4]] (REQUEST)
N -t 0.036844 -n 10 -e 19.999787
N -t 0.036844 -n 13 -e 19.990988
s 0.037980447 _24_ MAC  --- 0 ACK 5 [0 6 18 0] [energy 19.984994 ei 0.000 es 0.000 et 0.015 er 0.000] 
N -t 0.037980 -n 21 -e 19.990906
N -t 0.037980 -n 6 -e 19.984076
r 0.038332477 _6_ MAC  --- 0 ACK 5 [0 6 18 0] [energy 19.984076 ei 0.000 es 0.000 et 0.016 er 0.000] 
r 0.038972447 _24_ MAC  --- 0 AODV 44 [0 18 6 800] [energy 19.983410 ei 0.000 es 0.000 et 0.016 er 0.000] ------- [6:255 19:255 30 24] [0x4 1 [6 4] 10.000000] (REPLY)
r 0.039436259 _10_ MAC  --- 0 AODV 48 [0 ffffffff 9 800] [energy 19.999787 ei 0.000 es 0.000 et 0.000 er 0.000] ------- [9:255 -1:255 26 0] [0x2 5 1 [6 0] [19 4]] (REQUEST)
r 0.039436270 _13_ MAC  --- 0 AODV 48 [0 ffffffff 9 800] [energy 19.990988 ei 0.000 es 0.000 et 0.009 er 0.000] ------- [9:255 -1:255 26 0] [0x2 5 1 [6 0] [19 4]] (REQUEST)
s 0.039962447 _24_ MAC  --- 0 ARP 35 [0 ffffffff 18 806] [energy 19.983393 ei 0.000 es 0.000 et 0.016 er 0.000] ------- [REQUEST 24/24 0/21]
N -t 0.039962 -n 21 -e 19.990840
N -t 0.039962 -n 6 -e 19.984009
s 0.040926731 _10_ MAC  --- 0 AODV 55 [0 ffffffff a 800] [energy 19.999771 ei 0.000 es 0.000 et 0.000 er 0.000] ------- [10:255 -1:255 26 0] [0x2 5 1 [6 0] [19 4]] (REQUEST)
N -t 0.040927 -n 9 -e 19.990986
N -t 0.040927 -n 13 -e 19.990890
r 0.041914475 _21_ MAC  --- 0 ARP 28 [0 ffffffff 18 806] [energy 19.990840 ei 0.000 es 0.000 et 0.009 er 0.000] ------- [REQUEST 24/24 0/21]
r 0.041914477 _6_ MAC  --- 0 ARP 28 [0 ffffffff 18 806] [energy 19.984009 ei 0.000 es 0.000 et 0.016 er 0.000] ------- [REQUEST 24/24 0/21]
r 0.043518759 _9_ MAC  --- 0 AODV 48 [0 ffffffff a 800] [energy 19.990986 ei 0.000 es 0.000 et 0.009 er 0.000] ------- [10:255 -1:255 26 0] [0x2 5 1 [6 0] [19 4]] (REQUEST)
r 0.043518776 _13_ MAC  --- 0 AODV 48 [0 ffffffff a 800] [energy 19.990890 ei 0.000 es 0.000 et 0.009 er 0.000] ------- [10:255 -1:255 26 0] [0x2 5 1 [6 0] [19 4]] (REQUEST)
s 0.044479475 _21_ MAC  --- 0 ARP 35 [0 18 15 806] [energy 19.990823 ei 0.000 es 0.000 et 0.009 er 0.000] ------- [REPLY 21/21 24/24]
N -t 0.044480 -n 24 -e 19.977422
N -t 0.044480 -n 20 -e 19.990727
s 0.045983503 _24_ MAC  --- 0 ACK 5 [0 15 18 0] [energy 19.977422 ei 0.000 es 0.000 et 0.022 er 0.000] 
N -t 0.045984 -n 21 -e 19.984901
N -t 0.045984 -n 6 -e 19.983990
r 0.046335532 _21_ MAC  --- 0 ACK 5 [0 15 18 0] [energy 19.984901 ei 0.000 es 0.000 et 0.015 er 0.000] 
r 0.046975503 _24_ MAC  --- 0 ARP 28 [0 18 15 806] [energy 19.975838 ei 0.000 es 0.000 et 0.024 er 0.000] ------- [REPLY 21/21 24/24]
s 0.049540503 _24_ MAC  --- 0 AODV 51 [0 15 18 800] [energy 19.975820 ei 0.000 es 0.000 et 0.024 er 0.000] ------- [6:255 19:255 29 21] [0x4 2 [6 4] 10.000000] (REPLY)
N -t 0.049541 -n 21 -e 19.984808
N -t 0.049541 -n 6 -e 19.983897
s 0.051556532 _21_ MAC  --- 0 ACK 5 [0 18 15 0] [energy 19.984808 ei 0.000 es 0.000 et 0.015 er 0.000] 
N -t 0.051557 -n 24 -e 19.967595
N -t 0.051557 -n 20 -e 19.990706
r 0.051908560 _24_ MAC  --- 0 ACK 5 [0 18 15 0] [energy 19.967595 ei 0.000 es 0.000 et 0.032 er 0.000] 
r 0.052548532 _21_ MAC  --- 0 AODV 44 [0 15 18 800] [energy 19.983224 ei 0.000 es 0.000 et 0.016 er 0.000] ------- [6:255 19:255 29 21] [0x4 2 [6 4] 10.000000] (REPLY)
s 0.053858532 _21_ MAC  --- 0 ARP 35 [0 ffffffff 15 806] [energy 19.983207 ei 0.000 es 0.000 et 0.016 er 0.001] ------- [REQUEST 21/21 0/20]
N -t 0.053859 -n 24 -e 19.967528
N -t 0.053859 -n 20 -e 19.990640
r 0.055810560 _24_ MAC  --- 0 ARP 28 [0 ffffffff 15 806] [energy 19.967528 ei 0.000 es 0.000 et 0.032 er 0.000] ------- [REQUEST 21/21 0/20]
r 0.055810579 _20_ MAC  --- 0 ARP 28 [0 ffffffff 15 806] [energy 19.990640 ei 0.000 es 0.000 et 0.009 er 0.001] ------- [REQUEST 21/21 0/20]
s 0.057735579 _20_ MAC  --- 0 ARP 35 [0 15 14 806] [energy 19.990623 ei 0.000 es 0.000 et 0.009 er 0.001] ------- [REPLY 20/20 21/21]
N -t 0.057736 -n 4 -e 19.990913
N -t 0.057736 -n 21 -e 19.977236
N -t 0.057736 -n 15 -e 19.990817
N -t 0.057736 -n 19 -e 19.990622
s 0.059239626 _21_ MAC  --- 0 ACK 5 [0 14 15 0] [energy 19.977236 ei 0.000 es 0.000 et 0.022 er 0.001] 
N -t 0.059240 -n 24 -e 19.967508
N -t 0.059240 -n 20 -e 19.984701
r 0.059591673 _20_ MAC  --- 0 ACK 5 [0 14 15 0] [energy 19.984701 ei 0.000 es 0.000 et 0.015 er 0.001] 
r 0.060231626 _21_ MAC  --- 0 ARP 28 [0 15 14 806] [energy 19.975652 ei 0.000 es 0.000 et 0.024 er 0.001] ------- [REPLY 20/20 21/21]
s 0.062476626 _21_ MAC  --- 0 AODV 51 [0 14 15 800] [energy 19.975635 ei 0.000 es 0.000 et 0.024 er 0.001] ------- [6:255 19:255 28 20] [0x4 3 [6 4] 10.000000] (REPLY)
N -t 0.062477 -n 24 -e 19.967416
N -t 0.062477 -n 20 -e 19.984608
s 0.064492673 _20_ MAC  --- 0 ACK 5 [0 15 14 0] [energy 19.984608 ei 0.000 es 0.000 et 0.015 er 0.001] 
N -t 0.064493 -n 4 -e 19.990893
N -t 0.064493 -n 21 -e 19.967409
N -t 0.064493 -n 15 -e 19.990796
N -t 0.064493 -n 19 -e 19.990601
r 0.064844719 _21_ MAC  --- 0 ACK 5 [0 15 14 0] [energy 19.967409 ei 0.000 es 0.000 et 0.032 er 0.001] 
r 0.065484673 _20_ MAC  --- 0 AODV 44 [0 14 15 800] [energy 19.983024 ei 0.000 es 0.000 et 0.016 er 0.001] ------- [6:255 19:255 28 20] [0x4 3 [6 4] 10.000000] (REPLY)
s 0.068074673 _20_ MAC  --- 0 ARP 35 [0 ffffffff 14 806] [energy 19.983007 ei 0.000 es 0.000 et 0.016 er 0.001] ------- [REQUEST 20/20 0/19]
N -t 0.068075 -n 4 -e 19.990826
N -t 0.068075 -n 21 -e 19.967342
N -t 0.068075 -n 15 -e 19.990729
N -t 0.068075 -n 19 -e 19.990534
r 0.070026703 _4_ MAC  --- 0 ARP 28 [0 ffffffff 14 806] [energy 19.990826 ei 0.000 es 0.000 et 0.009 er 0.000] ------- [REQUEST 20/20 0/19]
r 0.070026719 _21_ MAC  --- 0 ARP 28 [0 ffffffff 14 806] [energy 19.967342 ei 0.000 es 0.000 et 0.032 er 0.001] ------- [REQUEST 20/20 0/19]
r 0.070026720 _15_ MAC  --- 0 ARP 28 [0 ffffffff 14 806] [energy 19.990729 ei 0.000 es 0.000 et 0.009 er 0.000] ------- [REQUEST 20/20 0/19]
r 0.070026722 _19_ MAC  --- 0 ARP 28 [0 ffffffff 14 806] [energy 19.990534 ei 0.000 es 0.000 et 0.009 er 0.001] ------- [REQUEST 20/20 0/19]
s 0.072591722 _19_ MAC  --- 0 ARP 35 [0 14 13 806] [energy 19.990517 ei 0.000 es 0.000 et 0.009 er 0.001] ------- [REPLY 19/19 20/20]
N -t 0.072592 -n 23 -e 19.990612
N -t 0.072592 -n 12 -e 19.990518
N -t 0.072592 -n 22 -e 19.990518
N -t 0.072592 -n 2 -e 19.990452
N -t 0.072592 -n 7 -e 19.998919
N -t 0.072592 -n 8 -e 19.990614
N -t 0.072592 -n 20 -e 19.977036
s 0.074095771 _20_ MAC  --- 0 ACK 5 [0 13 14 0] [energy 19.977036 ei 0.000 es 0.000 et 0.022 er 0.001] 
N -t 0.074096 -n 4 -e 19.990806
N -t 0.074096 -n 21 -e 19.967322
N -t 0.074096 -n 15 -e 19.990709
N -t 0.074096 -n 19 -e 19.984595
r 0.074447820 _19_ MAC  --- 0 ACK 5 [0 13 14 0] [energy 19.984595 ei 0.000 es 0.000 et 0.015 er 0.001] 
r 0.075087771 _20_ MAC  --- 0 ARP 28 [0 14 13 806] [energy 19.975451 ei 0.000 es 0.000 et 0.024 er 0.001] ------- [REPLY 19/19 20/20]
s 0.077012771 _20_ MAC  --- 0 AODV 51 [0 13 14 800] [energy 19.975434 ei 0.000 es 0.000 et 0.024 er 0.001] ------- [6:255 19:255 27 19] [0x4 4 [6 4] 10.000000] (REPLY)
N -t 0.077013 -n 4 -e 19.990713
N -t 0.077013 -n 21 -e 19.967229
N -t 0.077013 -n 15 -e 19.990617
N -t 0.077013 -n 19 -e 19.984502
s 0.079028820 _19_ MAC  --- 0 ACK 5 [0 14 13 0] [energy 19.984502 ei 0.000 es 0.000 et 0.015 er 0.001] 
N -t 0.079029 -n 23 -e 19.990592
N -t 0.079029 -n 12 -e 19.990497
N -t 0.079029 -n 22 -e 19.990497
N -t 0.079029 -n 2 -e 19.990432
N -t 0.079029 -n 7 -e 19.998899
N -t 0.079029 -n 8 -e 19.990594
N -t 0.079029 -n 20 -e 19.967209
r 0.079380869 _20_ MAC  --- 0 ACK 5 [0 14 13 0] [energy 19.967209 ei 0.000 es 0.000 et 0.032 er 0.001] 
v 0.080000000000000002 eval {set sim_annotation {cbr traffic from node 19 to node 6: 19 20 21 24 6}}
r 0.080020820 _19_ MAC  --- 0 AODV 44 [0 13 14 800] [energy 19.982918 ei 0.000 es 0.000 et 0.016 er 0.001] ------- [6:255 19:255 27 19] [0x4 4 [6 4] 10.000000] (REPLY)
s 0.080390820 _19_ MAC  --- 0 cbr 97 [0 14 13 800] [energy 19.982902 ei 0.000 es 0.000 et 0.016 er 0.001] ------- [19:0 6:0 30 20] [0] 0 0
N -t 0.080391 -n 23 -e 19.990427
N -t 0.080391 -n 12 -e 19.990332
N -t 0.080391 -n 22 -e 19.990332
N -t 0.080391 -n 2 -e 19.990266
N -t 0.080391 -n 7 -e 19.998733
N -t 0.080391 -n 8 -e 19.990429
N -t 0.080391 -n 20 -e 19.967043
s 0.083878869 _20_ MAC  --- 0 ACK 5 [0 13 14 0] [energy 19.967043 ei 0.000 es 0.000 et 0.032 er 0.001] 
N -t 0.083879 -n 4 -e 19.990693
N -t 0.083879 -n 21 -e 19.967209
N -t 0.083879 -n 15 -e 19.990597
N -t 0.083879 -n 19 -e 19.968052