# nam4wpan #
c -t * -i 32 -n tomato
c -t * -i 33 -n green
c -t * -i 34 -n blue
c -t * -i 35 -n green4
c -t * -i 36 -n cyan4
n -t * -s 0  -x 26.608377307314001 -y 49.446991827566002 -Z 0 -z 2  -v circle -c green
n -t * -s 1  -x 49.337311778721002 -y 48.582820874924003 -Z 0 -z 2  -v circle -c green
n -t * -s 2  -x 27.437938215930998 -y 30.091658830425001 -Z 0 -z 2  -v circle -c green
n -t * -s 3  -x 10.568766842666999 -y 47.453389414657003 -Z 0 -z 2  -v circle -c green
n -t * -s 4  -x 32.496269526711004 -y 2.2574501390449999 -Z 0 -z 2  -v circle -c green
n -t * -s 5  -x 26.476535726599 -y 38.646396828919997 -Z 0 -z 2  -v circle -c green
n -t * -s 6  -x 49.430596917301003 -y 31.320042376073001 -Z 0 -z 2  -v circle -c green
n -t * -s 7  -x 20.045665842363999 -y 32.537008965783002 -Z 0 -z 2  -v circle -c green
n -t * -s 8  -x 13.641089465783001 -y 28.871428688348999 -Z 0 -z 2  -v circle -c green
n -t * -s 9  -x 2.1258568489409999 -y 9.0496445382770005 -Z 0 -z 2  -v circle -c green
n -t * -s 10  -x 0.59687160517799998 -y 0.81617422862099998 -Z 0 -z 2  -v circle -c green
n -t * -s 11  -x 8.8281975910679993 -y 34.402175912552998 -Z 0 -z 2  -v circle -c green
n -t * -s 12  -x 18.759762507870001 -y 25.069997591097 -Z 0 -z 2  -v circle -c green
n -t * -s 13  -x 13.277017351151001 -y 5.5221490093060002 -Z 0 -z 2  -v circle -c green
n -t * -s 14  -x 28.935083056450001 -y 37.156742480258004 -Z 0 -z 2  -v circle -c green
n -t * -s 15  -x 23.507724673396002 -y 3.5667728464790001 -Z 0 -z 2  -v circle -c green
n -t * -s 16  -x 20.236128396148001 -y 45.484419961171 -Z 0 -z 2  -v circle -c green
n -t * -s 17  -x 45.709636471608 -y 48.353113573381997 -Z 0 -z 2  -v circle -c green
n -t * -s 18  -x 45.610349971557 -y 49.787732692399999 -Z 0 -z 2  -v circle -c green
n -t * -s 19  -x 24.345058881159002 -y 19.614188426582 -Z 0 -z 2  -v circle -c green
n -t * -s 20  -x 35.972132273531003 -y 10.620805728045999 -Z 0 -z 2  -v circle -c green
n -t * -s 21  -x 49.626765649851002 -y 14.028905860150999 -Z 0 -z 2  -v circle -c green
n -t * -s 22  -x 14.914806804685 -y 24.094071765795 -Z 0 -z 2  -v circle -c green
n -t * -s 23  -x 28.443020411336001 -y 24.367299319337999 -Z 0 -z 2  -v circle -c green
n -t * -s 24  -x 48.102836431793001 -y 22.394995544608001 -Z 0 -z 2  -v circle -c green
V -t * -v 1.0a5 -a 0
W -t * -x 50 -y 50
A -t * -n 1 -p 0 -o 0x7fffffff -c 30 -a 1
A -t * -h 1 -m 1073741823 -s 0
v -t 0.000000000 -e set_rate_ext 0.5ms 1
v -t 0 -e sim_annotation 0 1 (at 0.0) cbr traffic from node 19 to node 6
n -t 0.000000000 -s 19 -S COLOR -c blue -o black
n -t 0.000000000 -s 6 -S COLOR -c blue -o black
+ -t 0.000665000 -s 19 -d -1 -p AODV -e 55 -c 2 -a 32 -i 0 -k MAC 
- -t 0.000665000 -s 19 -d -1 -p AODV -e 55 -c 2 -a 32 -i 0 -k MAC
h -t 0.000665000 -s 19 -d -1 -p AODV -e 55 -c 2 -a 32 -i 0 -k MAC -R 15.00 -D 0.00
r -t 0.003257021 -s 23 -d -1 -p AODV -e 48 -c 2 -a 32 -i 0 -k MAC
r -t 0.003257026 -s 12 -d -1 -p AODV -e 48 -c 2 -a 32 -i 0 -k MAC
r -t 0.003257035 -s 22 -d -1 -p AODV -e 48 -c 2 -a 32 -i 0 -k MAC
r -t 0.003257036 -s 2 -d -1 -p AODV -e 48 -c 2 -a 32 -i 0 -k MAC
r -t 0.003257045 -s 7 -d -1 -p AODV -e 48 -c 2 -a 32 -i 0 -k MAC
r -t 0.003257047 -s 8 -d -1 -p AODV -e 48 -c 2 -a 32 -i 0 -k MAC
r -t 0.003257049 -s 20 -d -1 -p AODV -e 48 -c 2 -a 32 -i 0 -k MAC
+ -t 0.003902622 -s 8 -d -1 -p AODV -e 55 -c 2 -a 32 -i 0 -k MAC 
- -t 0.003902622 -s 8 -d -1 -p AODV -e 55 -c 2 -a 32 -i 0 -k MAC
h -t 0.003902622 -s 8 -d -1 -p AODV -e 55 -c 2 -a 32 -i 0 -k MAC -R 15.00 -D 0.00
r -t 0.006494638 -s 22 -d -1 -p AODV -e 48 -c 2 -a 32 -i 0 -k MAC
r -t 0.006494643 -s 12 -d -1 -p AODV -e 48 -c 2 -a 32 -i 0 -k MAC
r -t 0.006494646 -s 11 -d -1 -p AODV -e 48 -c 2 -a 32 -i 0 -k MAC
r -t 0.006494646 -s 7 -d -1 -p AODV -e 48 -c 2 -a 32 -i 0 -k MAC
r -t 0.006494668 -s 2 -d -1 -p AODV -e 48 -c 2 -a 32 -i 0 -k MAC
r -t 0.006494669 -s 19 -d -1 -p AODV -e 48 -c 2 -a 32 -i 0 -k MAC
+ -t 0.008165276 -s 22 -d -1 -p AODV -e 55 -c 2 -a 32 -i 0 -k MAC 
- -t 0.008165276 -s 22 -d -1 -p AODV -e 55 -c 2 -a 32 -i 0 -k MAC
h -t 0.008165276 -s 22 -d -1 -p AODV -e 55 -c 2 -a 32 -i 0 -k MAC -R 15.00 -D 0.00
+ -t 0.008180219 -s 20 -d -1 -p AODV -e 55 -c 2 -a 32 -i 0 -k MAC 
- -t 0.008180219 -s 20 -d -1 -p AODV -e 55 -c 2 -a 32 -i 0 -k MAC
h -t 0.008180219 -s 20 -d -1 -p AODV -e 55 -c 2 -a 32 -i 0 -k MAC -R 15.00 -D 0.00
+ -t 0.008203918 -s 7 -d -1 -p AODV -e 55 -c 2 -a 32 -i 0 -k MAC 
- -t 0.008203918 -s 7 -d -1 -p AODV -e 55 -c 2 -a 32 -i 0 -k MAC
h -t 0.008203918 -s 7 -d -1 -p AODV -e 55 -c 2 -a 32 -i 0 -k MAC -R 15.00 -D 0.00
d -t 0.010117289 -s 12 -d -1 -p AODV -e 55 -c 2 -a 32 -i 0 -k MAC
d -t 0.010117293 -s 8 -d -1 -p AODV -e 55 -c 2 -a 32 -i 0 -k MAC
d -t 0.010117311 -s 19 -d -1 -p AODV -e 55 -c 2 -a 32 -i 0 -k MAC
d -t 0.010155944 -s 2 -d -1 -p AODV -e 55 -c 2 -a 32 -i 0 -k MAC
d -t 0.010155956 -s 11 -d -1 -p AODV -e 55 -c 2 -a 32 -i 0 -k MAC
d -t 0.010155957 -s 23 -d -1 -p AODV -e 55 -c 2 -a 32 -i 0 -k MAC
+ -t 0.010675241 -s 23 -d -1 -p AODV -e 55 -c 2 -a 32 -i 0 -k MAC 
- -t 0.010675241 -s 23 -d -1 -p AODV -e 55 -c 2 -a 32 -i 0 -k MAC
h -t 0.010675241 -s 23 -d -1 -p AODV -e 55 -c 2 -a 32 -i 0 -k MAC -R 15.00 -D 0.00
r -t 0.010772249 -s 4 -d -1 -p AODV -e 48 -c 2 -a 32 -i 0 -k MAC
r -t 0.010772266 -s 21 -d -1 -p AODV -e 48 -c 2 -a 32 -i 0 -k MAC
r -t 0.010772267 -s 15 -d -1 -p AODV -e 48 -c 2 -a 32 -i 0 -k MAC
r -t 0.010795948 -s 5 -d -1 -p AODV -e 48 -c 2 -a 32 -i 0 -k MAC
r -t 0.010795952 -s 14 -d -1 -p AODV -e 48 -c 2 -a 32 -i 0 -k MAC
r -t 0.010795961 -s 16 -d -1 -p AODV -e 48 -c 2 -a 32 -i 0 -k MAC
+ -t 0.012695835 -s 21 -d -1 -p AODV -e 55 -c 2 -a 32 -i 0 -k MAC 
- -t 0.012695835 -s 21 -d -1 -p AODV -e 55 -c 2 -a 32 -i 0 -k MAC
h -t 0.012695835 -s 21 -d -1 -p AODV -e 55 -c 2 -a 32 -i 0 -k MAC -R 15.00 -D 0.00
r -t 0.013267260 -s 2 -d -1 -p AODV -e 48 -c 2 -a 32 -i 0 -k MAC
r -t 0.013267262 -s 19 -d -1 -p AODV -e 48 -c 2 -a 32 -i 0 -k MAC
r -t 0.013267273 -s 12 -d -1 -p AODV -e 48 -c 2 -a 32 -i 0 -k MAC
r -t 0.013267280 -s 7 -d -1 -p AODV -e 48 -c 2 -a 32 -i 0 -k MAC
r -t 0.013267283 -s 14 -d -1 -p AODV -e 48 -c 2 -a 32 -i 0 -k MAC
r -t 0.013267286 -s 22 -d -1 -p AODV -e 48 -c 2 -a 32 -i 0 -k MAC
r -t 0.013267289 -s 5 -d -1 -p AODV -e 48 -c 2 -a 32 -i 0 -k MAC
+ -t 0.014313583 -s 12 -d -1 -p AODV -e 55 -c 2 -a 32 -i 0 -k MAC 
- -t 0.014313583 -s 12 -d -1 -p AODV -e 55 -c 2 -a 32 -i 0 -k MAC
h -t 0.014313583 -s 12 -d -1 -p AODV -e 55 -c 2 -a 32 -i 0 -k MAC -R 15.00 -D 0.00
+ -t 0.014355282 -s 5 -d -1 -p AODV -e 55 -c 2 -a 32 -i 0 -k MAC 
- -t 0.014355282 -s 5 -d -1 -p AODV -e 55 -c 2 -a 32 -i 0 -k MAC
h -t 0.014355282 -s 5 -d -1 -p AODV -e 55 -c 2 -a 32 -i 0 -k MAC -R 15.00 -D 0.00
r -t 0.015287863 -s 24 -d -1 -p AODV -e 48 -c 2 -a 32 -i 0 -k MAC
r -t 0.015287882 -s 20 -d -1 -p AODV -e 48 -c 2 -a 32 -i 0 -k MAC
d -t 0.016265608 -s 7 -d -1 -p AODV -e 55 -c 2 -a 32 -i 0 -k MAC
d -t 0.016265615 -s 23 -d -1 -p AODV -e 55 -c 2 -a 32 -i 0 -k MAC
d -t 0.016307310 -s 2 -d -1 -p AODV -e 55 -c 2 -a 32 -i 0 -k MAC
r -t 0.016905596 -s 22 -d -1 -p AODV -e 48 -c 2 -a 32 -i 0 -k MAC
r -t 0.016905604 -s 8 -d -1 -p AODV -e 48 -c 2 -a 32 -i 0 -k MAC
r -t 0.016905609 -s 19 -d -1 -p AODV -e 48 -c 2 -a 32 -i 0 -k MAC
r -t 0.016905628 -s 11 -d -1 -p AODV -e 48 -c 2 -a 32 -i 0 -k MAC
r -t 0.016947291 -s 14 -d -1 -p AODV -e 48 -c 2 -a 32 -i 0 -k MAC
r -t 0.016947313 -s 16 -d -1 -p AODV -e 48 -c 2 -a 32 -i 0 -k MAC
r -t 0.016947318 -s 0 -d -1 -p AODV -e 48 -c 2 -a 32 -i 0 -k MAC
+ -t 0.017454947 -s 16 -d -1 -p AODV -e 55 -c 2 -a 32 -i 0 -k MAC 
- -t 0.017454947 -s 16 -d -1 -p AODV -e 55 -c 2 -a 32 -i 0 -k MAC
h -t 0.017454947 -s 16 -d -1 -p AODV -e 55 -c 2 -a 32 -i 0 -k MAC -R 15.00 -D 0.00
+ -t 0.017751433 -s 2 -d -1 -p AODV -e 55 -c 2 -a 32 -i 0 -k MAC 
- -t 0.017751433 -s 2 -d -1 -p AODV -e 55 -c 2 -a 32 -i 0 -k MAC
h -t 0.017751433 -s 2 -d -1 -p AODV -e 55 -c 2 -a 32 -i 0 -k MAC -R 15.00 -D 0.00
+ -t 0.017979484 -s 15 -d -1 -p AODV -e 55 -c 2 -a 32 -i 0 -k MAC 
- -t 0.017979484 -s 15 -d -1 -p AODV -e 55 -c 2 -a 32 -i 0 -k MAC
h -t 0.017979484 -s 15 -d -1 -p AODV -e 55 -c 2 -a 32 -i 0 -k MAC -R 15.00 -D 0.00
d -t 0.019703457 -s 14 -d -1 -p AODV -e 55 -c 2 -a 32 -i 0 -k MAC
d -t 0.019703459 -s 7 -d -1 -p AODV -e 55 -c 2 -a 32 -i 0 -k MAC
d -t 0.019703462 -s 5 -d -1 -p AODV -e 55 -c 2 -a 32 -i 0 -k MAC
r -t 0.020046972 -s 0 -d -1 -p AODV -e 48 -c 2 -a 32 -i 0 -k MAC
r -t 0.020046980 -s 3 -d -1 -p AODV -e 48 -c 2 -a 32 -i 0 -k MAC
+ -t 0.020137006 -s 14 -d -1 -p AODV -e 55 -c 2 -a 32 -i 0 -k MAC 
- -t 0.020137006 -s 14 -d -1 -p AODV -e 55 -c 2 -a 32 -i 0 -k MAC
h -t 0.020137006 -s 14 -d -1 -p AODV -e 55 -c 2 -a 32 -i 0 -k MAC -R 15.00 -D 0.00
r -t 0.020343453 -s 23 -d -1 -p AODV -e 48 -c 2 -a 32 -i 0 -k MAC
r -t 0.020343467 -s 12 -d -1 -p AODV -e 48 -c 2 -a 32 -i 0 -k MAC
r -t 0.020343470 -s 19 -d -1 -p AODV -e 48 -c 2 -a 32 -i 0 -k MAC
r -t 0.020343479 -s 8 -d -1 -p AODV -e 48 -c 2 -a 32 -i 0 -k MAC
r -t 0.020343479 -s 22 -d -1 -p AODV -e 48 -c 2 -a 32 -i 0 -k MAC
r -t 0.020571514 -s 4 -d -1 -p AODV -e 48 -c 2 -a 32 -i 0 -k MAC
r -t 0.020571518 -s 13 -d -1 -p AODV -e 48 -c 2 -a 32 -i 0 -k MAC
r -t 0.020571532 -s 20 -d -1 -p AODV -e 48 -c 2 -a 32 -i 0 -k MAC
r -t 0.022729016 -s 5 -d -1 -p AODV -e 48 -c 2 -a 32 -i 0 -k MAC
r -t 0.022729030 -s 2 -d -1 -p AODV -e 48 -c 2 -a 32 -i 0 -k MAC
r -t 0.022729040 -s 7 -d -1 -p AODV -e 48 -c 2 -a 32 -i 0 -k MAC
r -t 0.022729047 -s 16 -d -1 -p AODV -e 48 -c 2 -a 32 -i 0 -k MAC
r -t 0.022729048 -s 0 -d -1 -p AODV -e 48 -c 2 -a 32 -i 0 -k MAC
r -t 0.022729049 -s 23 -d -1 -p AODV -e 48 -c 2 -a 32 -i 0 -k MAC
+ -t 0.023142316 -s 4 -d -1 -p AODV -e 55 -c 2 -a 32 -i 0 -k MAC 
- -t 0.023142316 -s 4 -d -1 -p AODV -e 55 -c 2 -a 32 -i 0 -k MAC
h -t 0.023142316 -s 4 -d -1 -p AODV -e 55 -c 2 -a 32 -i 0 -k MAC -R 15.00 -D 0.00
+ -t 0.025044326 -s 24 -d -1 -p AODV -e 55 -c 2 -a 32 -i 0 -k MAC 
- -t 0.025044326 -s 24 -d -1 -p AODV -e 55 -c 2 -a 32 -i 0 -k MAC
h -t 0.025044326 -s 24 -d -1 -p AODV -e 55 -c 2 -a 32 -i 0 -k MAC -R 15.00 -D 0.00
r -t 0.025734346 -s 20 -d -1 -p AODV -e 48 -c 2 -a 32 -i 0 -k MAC
r -t 0.025734346 -s 15 -d -1 -p AODV -e 48 -c 2 -a 32 -i 0 -k MAC
+ -t 0.025868808 -s 11 -d -1 -p AODV -e 55 -c 2 -a 32 -i 0 -k MAC 
- -t 0.025868808 -s 11 -d -1 -p AODV -e 55 -c 2 -a 32 -i 0 -k MAC
h -t 0.025868808 -s 11 -d -1 -p AODV -e 55 -c 2 -a 32 -i 0 -k MAC -R 15.00 -D 0.00
+ -t 0.026433141 -s 0 -d -1 -p AODV -e 55 -c 2 -a 32 -i 0 -k MAC 
- -t 0.026433141 -s 0 -d -1 -p AODV -e 55 -c 2 -a 32 -i 0 -k MAC
h -t 0.026433141 -s 0 -d -1 -p AODV -e 55 -c 2 -a 32 -i 0 -k MAC -R 15.00 -D 0.00
+ -t 0.026925294 -s 13 -d -1 -p AODV -e 55 -c 2 -a 32 -i 0 -k MAC 
- -t 0.026925294 -s 13 -d -1 -p AODV -e 55 -c 2 -a 32 -i 0 -k MAC
h -t 0.026925294 -s 13 -d -1 -p AODV -e 55 -c 2 -a 32 -i 0 -k MAC -R 15.00 -D 0.00
r -t 0.027636355 -s 21 -d -1 -p AODV -e 48 -c 2 -a 32 -i 0 -k MAC
r -t 0.027636357 -s 6 -d -1 -p AODV -e 48 -c 2 -a 32 -i 0 -k MAC
r -t 0.028460833 -s 8 -d -1 -p AODV -e 48 -c 2 -a 32 -i 0 -k MAC
r -t 0.028460846 -s 7 -d -1 -p AODV -e 48 -c 2 -a 32 -i 0 -k MAC
r -t 0.028460848 -s 22 -d -1 -p AODV -e 48 -c 2 -a 32 -i 0 -k MAC
r -t 0.028460852 -s 3 -d -1 -p AODV -e 48 -c 2 -a 32 -i 0 -k MAC
r -t 0.028460854 -s 12 -d -1 -p AODV -e 48 -c 2 -a 32 -i 0 -k MAC
+ -t 0.028626357 -s 6 -d -1 -p ARP -e 35 -c 2 -a 33 -i 0 -k MAC 
- -t 0.028626357 -s 6 -d -1 -p ARP -e 35 -c 2 -a 33 -i 0 -k MAC
h -t 0.028626357 -s 6 -d -1 -p ARP -e 35 -c 2 -a 33 -i 0 -k MAC -R 15.00 -D 0.00
+ -t 0.028652239 -s 3 -d -1 -p AODV -e 55 -c 2 -a 32 -i 0 -k MAC 
- -t 0.028652239 -s 3 -d -1 -p AODV -e 55 -c 2 -a 32 -i 0 -k MAC
h -t 0.028652239 -s 3 -d -1 -p AODV -e 55 -c 2 -a 32 -i 0 -k MAC -R 15.00 -D 0.00
r -t 0.029025166 -s 16 -d -1 -p AODV -e 48 -c 2 -a 32 -i 0 -k MAC
r -t 0.029025177 -s 5 -d -1 -p AODV -e 48 -c 2 -a 32 -i 0 -k MAC
r -t 0.029025183 -s 14 -d -1 -p AODV -e 48 -c 2 -a 32 -i 0 -k MAC
r -t 0.029517328 -s 15 -d -1 -p AODV -e 48 -c 2 -a 32 -i 0 -k MAC
r -t 0.029517333 -s 9 -d -1 -p AODV -e 48 -c 2 -a 32 -i 0 -k MAC
r -t 0.029517339 -s 10 -d -1 -p AODV -e 48 -c 2 -a 32 -i 0 -k MAC
n -t 0.030001001 -s 19 -S COLOR -c blue -o blue
n -t 0.030001001 -s 6 -S COLOR -c blue -o blue
r -t 0.030578387 -s 24 -d -1 -p ARP -e 28 -c 2 -a 33 -i 0 -k MAC
r -t 0.031244272 -s 16 -d -1 -p AODV -e 48 -c 2 -a 32 -i 0 -k MAC
r -t 0.031244283 -s 11 -d -1 -p AODV -e 48 -c 2 -a 32 -i 0 -k MAC
+ -t 0.032823387 -s 24 -d -1 -p ARP -e 35 -c 2 -a 33 -i 0 -k MAC 
- -t 0.032823387 -s 24 -d -1 -p ARP -e 35 -c 2 -a 33 -i 0 -k MAC
h -t 0.032823387 -s 24 -d -1 -p ARP -e 35 -c 2 -a 33 -i 0 -k MAC -R 15.00 -D 0.00
+ -t 0.034327417 -s 6 -d 24 -p ACK -e 5 -c 2 -a 0 -i 0 -k MAC 
- -t 0.034327417 -s 6 -d 24 -p ACK -e 5 -c 2 -a 0 -i 0 -k MAC
h -t 0.034327417 -s 6 -d 24 -p ACK -e 5 -c 2 -a 0 -i 0 -k MAC
r -t 0.034679447 -s 24 -d 24 -p ACK -e 5 -c 2 -a 0 -i 0 -k MAC
r -t 0.035319417 -s 6 -d -1 -p ARP -e 28 -c 2 -a 33 -i 0 -k MAC
+ -t 0.035964417 -s 6 -d 24 -p AODV -e 51 -c 2 -a 32 -i 0 -k MAC 
- -t 0.035964417 -s 6 -d 24 -p AODV -e 51 -c 2 -a 32 -i 0 -k MAC
h -t 0.035964417 -s 6 -d 24 -p AODV -e 51 -c 2 -a 32 -i 0 -k MAC
+ -t 0.036844231 -s 9 -d -1 -p AODV -e 55 -c 2 -a 32 -i 0 -k MAC 
- -t 0.036844231 -s 9 -d -1 -p AODV -e 55 -c 2 -a 32 -i 0 -k MAC
h -t 0.036844231 -s 9 -d -1 -p AODV -e 55 -c 2 -a 32 -i 0 -k MAC -R 15.00 -D 0.00
+ -t 0.037980447 -s 24 -d 6 -p ACK -e 5 -c 2 -a 0 -i 0 -k MAC 
- -t 0.037980447 -s 24 -d 6 -p ACK -e 5 -c 2 -a 0 -i 0 -k MAC
h -t 0.037980447 -s 24 -d 6 -p ACK -e 5 -c 2 -a 0 -i 0 -k MAC
r -t 0.038332477 -s 6 -d 6 -p ACK -e 5 -c 2 -a 0 -i 0 -k MAC
r -t 0.038972447 -s 24 -d 24 -p AODV -e 44 -c 2 -a 32 -i 0 -k MAC
r -t 0.039436259 -s 10 -d -1 -p AODV -e 48 -c 2 -a 32 -i 0 -k MAC
r -t 0.039436270 -s 13 -d -1 -p AODV -e 48 -c 2 -a 32 -i 0 -k MAC
+ -t 0.039962447 -s 24 -d -1 -p ARP -e 35 -c 2 -a 33 -i 0 -k MAC 
- -t 0.039962447 -s 24 -d -1 -p ARP -e 35 -c 2 -a 33 -i 0 -k MAC
h -t 0.039962447 -s 24 -d -1 -p ARP -e 35 -c 2 -a 33 -i 0 -k MAC -R 15.00 -D 0.00
+ -t 0.040926731 -s 10 -d -1 -p AODV -e 55 -c 2 -a 32 -i 0 -k MAC 
- -t 0.040926731 -s 10 -d -1 -p AODV -e 55 -c 2 -a 32 -i 0 -k MAC
h -t 0.040926731 -s 10 -d -1 -p AODV -e 55 -c 2 -a 32 -i 0 -k MAC -R 15.00 -D 0.00
r -t 0.041914475 -s 21 -d -1 -p ARP -e 28 -c 2 -a 33 -i 0 -k MAC
r -t 0.041914477 -s 6 -d -1 -p ARP -e 28 -c 2 -a 33 -i 0 -k MAC
r -t 0.043518759 -s 9 -d -1 -p AODV -e 48 -c 2 -a 32 -i 0 -k MAC
r -t 0.043518776 -s 13 -d -1 -p AODV -e 48 -c 2 -a 32 -i 0 -k MAC
+ -t 0.044479475 -s 21 -d -1 -p ARP -e 35 -c 2 -a 33 -i 0 -k MAC 
- -t 0.044479475 -s 21 -d -1 -p ARP -e 35 -c 2 -a 33 -i 0 -k MAC
h -t 0.044479475 -s 21 -d -1 -p ARP -e 35 -c 2 -a 33 -i 0 -k MAC -R 15.00 -D 0.00
+ -t 0.045983503 -s 24 -d 21 -p ACK -e 5 -c 2 -a 0 -i 0 -k MAC 
- -t 0.045983503 -s 24 -d 21 -p ACK -e 5 -c 2 -a 0 -i 0 -k MAC
h -t 0.045983503 -s 24 -d 21 -p ACK -e 5 -c 2 -a 0 -i 0 -k MAC
r -t 0.046335532 -s 21 -d 21 -p ACK -e 5 -c 2 -a 0 -i 0 -k MAC
r -t 0.046975503 -s 24 -d -1 -p ARP -e 28 -c 2 -a 33 -i 0 -k MAC
+ -t 0.049540503 -s 24 -d 21 -p AODV -e 51 -c 2 -a 32 -i 0 -k MAC 
- -t 0.049540503 -s 24 -d 21 -p AODV -e 51 -c 2 -a 32 -i 0 -k MAC
h -t 0.049540503 -s 24 -d 21 -p AODV -e 51 -c 2 -a 32 -i 0 -k MAC
+ -t 0.051556532 -s 21 -d 24 -p ACK -e 5 -c 2 -a 0 -i 0 -k MAC 
- -t 0.051556532 -s 21 -d 24 -p ACK -e 5 -c 2 -a 0 -i 0 -k MAC
h -t 0.051556532 -s 21 -d 24 -p ACK -e 5 -c 2 -a 0 -i 0 -k MAC
r -t 0.051908560 -s 24 -d 24 -p ACK -e 5 -c 2 -a 0 -i 0 -k MAC
r -t 0.052548532 -s 21 -d 21 -p AODV -e 44 -c 2 -a 32 -i 0 -k MAC
+ -t 0.053858532 -s 21 -d -1 -p ARP -e 35 -c 2 -a 33 -i 0 -k MAC 
- -t 0.053858532 -s 21 -d -1 -p ARP -e 35 -c 2 -a 33 -i 0 -k MAC
h -t 0.053858532 -s 21 -d -1 -p ARP -e 35 -c 2 -a 33 -i 0 -k MAC -R 15.00 -D 0.00
r -t 0.055810560 -s 24 -d -1 -p ARP -e 28 -c 2 -a 33 -i 0 -k MAC
r -t 0.055810579 -s 20 -d -1 -p ARP -e 28 -c 2 -a 33 -i 0 -k MAC
+ -t 0.057735579 -s 20 -d -1 -p ARP -e 35 -c 2 -a 33 -i 0 -k MAC 
- -t 0.057735579 -s 20 -d -1 -p ARP -e 35 -c 2 -a 33 -i 0 -k MAC
h -t 0.057735579 -s 20 -d -1 -p ARP -e 35 -c 2 -a 33 -i 0 -k MAC -R 15.00 -D 0.00
+ -t 0.059239626 -s 21 -d 20 -p ACK -e 5 -c 2 -a 0 -i 0 -k MAC 
- -t 0.059239626 -s 21 -d 20 -p ACK -e 5 -c 2 -a 0 -i 0 -k MAC
h -t 0.059239626 -s 21 -d 20 -p ACK -e 5 -c 2 -a 0 -i 0 -k MAC
r -t 0.059591673 -s 20 -d 20 -p ACK -e 5 -c 2 -a 0 -i 0 -k MAC
r -t 0.060231626 -s 21 -d -1 -p ARP -e 28 -c 2 -a 33 -i 0 -k MAC
+ -t 0.062476626 -s 21 -d 20 -p AODV -e 51 -c 2 -a 32 -i 0 -k MAC 
- -t 0.062476626 -s 21 -d 20 -p AODV -e 51 -c 2 -a 32 -i 0 -k MAC
h -t 0.062476626 -s 21 -d 20 -p AODV -e 51 -c 2 -a 32 -i 0 -k MAC
+ -t 0.064492673 -s 20 -d 21 -p ACK -e 5 -c 2 -a 0 -i 0 -k MAC 
- -t 0.064492673 -s 20 -d 21 -p ACK -e 5 -c 2 -a 0 -i 0 -k MAC
h -t 0.064492673 -s 20 -d 21 -p ACK -e 5 -c 2 -a 0 -i 0 -k MAC
r -t 0.064844719 -s 21 -d 21 -p ACK -e 5 -c 2 -a 0 -i 0 -k MAC
r -t 0.065484673 -s 20 -d 20 -p AODV -e 44 -c 2 -a 32 -i 0 -k MAC
+ -t 0.068074673 -s 20 -d -1 -p ARP -e 35 -c 2 -a 33 -i 0 -k MAC 
- -t 0.068074673 -s 20 -d -1 -p ARP -e 35 -c 2 -a 33 -i 0 -k MAC
h -t 0.068074673 -s 20 -d -1 -p ARP -e 35 -c 2 -a 33 -i 0 -k MAC -R 15.00 -D 0.00
r -t 0.070026703 -s 4 -d -1 -p ARP -e 28 -c 2 -a 33 -i 0 -k MAC
r -t 0.070026719 -s 21 -d -1 -p ARP -e 28 -c 2 -a 33 -i 0 -k MAC
r -t 0.070026720 -s 15 -d -1 -p ARP -e 28 -c 2 -a 33 -i 0 -k MAC
r -t 0.070026722 -s 19 -d -1 -p ARP -e 28 -c 2 -a 33 -i 0 -k MAC
+ -t 0.072591722 -s 19 -d -1 -p ARP -e 35 -c 2 -a 33 -i 0 -k MAC 
- -t 0.072591722 -s 19 -d -1 -p ARP -e 35 -c 2 -a 33 -i 0 -k MAC
h -t 0.072591722 -s 19 -d -1 -p ARP -e 35 -c 2 -a 33 -i 0 -k MAC -R 15.00 -D 0.00
+ -t 0.074095771 -s 20 -d 19 -p ACK -e 5 -c 2 -a 0 -i 0 -k MAC 
- -t 0.074095771 -s 20 -d 19 -p ACK -e 5 -c 2 -a 0 -i 0 -k MAC
h -t 0.074095771 -s 20 -d 19 -p ACK -e 5 -c 2 -a 0 -i 0 -k MAC
r -t 0.074447820 -s 19 -d 19 -p ACK -e 5 -c 2 -a 0 -i 0 -k MAC
r -t 0.075087771 -s 20 -d -1 -p ARP -e 28 -c 2 -a 33 -i 0 -k MAC
+ -t 0.077012771 -s 20 -d 19 -p AODV -e 51 -c 2 -a 32 -i 0 -k MAC 
- -t 0.077012771 -s 20 -d 19 -p AODV -e 51 -c 2 -a 32 -i 0 -k MAC
h -t 0.077012771 -s 20 -d 19 -p AODV -e 51 -c 2 -a 32 -i 0 -k MAC
+ -t 0.079028820 -s 19 -d 20 -p ACK -e 5 -c 2 -a 0 -i 0 -k MAC 
- -t 0.079028820 -s 19 -d 20 -p ACK -e 5 -c 2 -a 0 -i 0 -k MAC
h -t 0.079028820 -s 19 -d 20 -p ACK -e 5 -c 2 -a 0 -i 0 -k MAC
r -t 0.079380869 -s 20 -d 20 -p ACK -e 5 -c 2 -a 0 -i 0 -k MAC
v -t 0.08 -e sim_annotation 0.08 2 cbr traffic from node 19 to node 6: 19 20 21 24 6
r -t 0.080020820 -s 19 -d 19 -p AODV -e 44 -c 2 -a 32 -i 0 -k MAC
+ -t 0.080390820 -s 19 -d 20 -p cbr -e 97 -c 2 -a 34 -i 0 -k MAC 
- -t 0.080390820 -s 19 -d 20 -p cbr -e 97 -c 2 -a 34 -i 0 -k MAC
h -t 0.080390820 -s 19 -d 20 -p cbr -e 97 -c 2 -a 34 -i 0 -k MAC
+ -t 0.083878869 -s 20 -d 19 -p ACK -e 5 -c 2 -a 0 -i 0 -k MAC 
- -t 0.083878869 -s 20 -d 19 -p ACK -e 5 -c 2 -a 0 -i 0 -k MAC
h -t 0.083878869 -s 20 -d 19 -p ACK -e 5 -c 2 -a 0 -i 0 -k MAC
r -t 0.084230918 -s 19 -d 19 -p ACK -e 5 -c 2 -a 0 -i 0 -k MAC
r -t 0.084870869 -s 20 -d 20 -p cbr -e 90 -c 2 -a 34 -i 0 -k MAC
+ -t 0.087160869 -s 20 -d 21 -p cbr -e 97 -c 2 -a 34 -i 0 -k MAC 
- -t 0.087160869 -s 20 -d 21 -p cbr -e 97 -c 2 -a 34 -i 0 -k MAC
h -t 0.087160869 -s 20 -d 21 -p cbr -e 97 -c 2 -a 34 -i 0 -k MAC
+ -t 0.090648915 -s 21 -d 20 -p ACK -e 5 -c 2 -a 0 -i 0 -k MAC 
- -t 0.090648915 -s 21 -d 20 -p ACK -e 5 -c 2 -a 0 -i 0 -k MAC
h -t 0.090648915 -s 21 -d 20 -p ACK -e 5 -c 2 -a 0 -i 0 -k MAC
r -t 0.091000962 -s 20 -d 20 -p ACK -e 5 -c 2 -a 0 -i 0 -k MAC
r -t 0.091640915 -s 21 -d 21 -p cbr -e 90 -c 2 -a 34 -i 0 -k MAC
+ -t 0.092970915 -s 21 -d 24 -p cbr -e 97 -c 2 -a 34 -i 0 -k MAC 
- -t 0.092970915 -s 21 -d 24 -p cbr -e 97 -c 2 -a 34 -i 0 -k MAC
h -t 0.092970915 -s 21 -d 24 -p cbr -e 97 -c 2 -a 34 -i 0 -k MAC
+ -t 0.096458944 -s 24 -d 21 -p ACK -e 5 -c 2 -a 0 -i 0 -k MAC 
- -t 0.096458944 -s 24 -d 21 -p ACK -e 5 -c 2 -a 0 -i 0 -k MAC
h -t 0.096458944 -s 24 -d 21 -p ACK -e 5 -c 2 -a 0 -i 0 -k MAC
r -t 0.096810972 -s 21 -d 21 -p ACK -e 5 -c 2 -a 0 -i 0 -k MAC
r -t 0.097450944 -s 24 -d 24 -p cbr -e 90 -c 2 -a 34 -i 0 -k MAC
+ -t 0.099100944 -s 24 -d 6 -p cbr -e 97 -c 2 -a 34 -i 0 -k MAC 
- -t 0.099100944 -s 24 -d 6 -p cbr -e 97 -c 2 -a 34 -i 0 -k MAC
h -t 0.099100944 -s 24 -d 6 -p cbr -e 97 -c 2 -a 34 -i 0 -k MAC
v -t 0.100000001 -e set_rate_ext 1.5ms 1
+ -t 0.102588974 -s 6 -d 24 -p ACK -e 5 -c 2 -a 0 -i 0 -k MAC 
- -t 0.102588974 -s 6 -d 24 -p ACK -e 5 -c 2 -a 0 -i 0 -k MAC
h -t 0.102588974 -s 6 -d 24 -p ACK -e 5 -c 2 -a 0 -i 0 -k MAC
r -t 0.102941004 -s 24 -d 24 -p ACK -e 5 -c 2 -a 0 -i 0 -k MAC
r -t 0.103580974 -s 6 -d 6 -p cbr -e 90 -c 2 -a 34 -i 0 -k MAC
+ -t 0.202585000 -s 19 -d 20 -p cbr -e 97 -c 2 -a 34 -i 1 -k MAC 
- -t 0.202585000 -s 19 -d 20 -p cbr -e 97 -c 2 -a 34 -i 1 -k MAC
h -t 0.202585000 -s 19 -d 20 -p cbr -e 97 -c 2 -a 34 -i 1 -k MAC
+ -t 0.206073049 -s 20 -d 19 -p ACK -e 5 -c 2 -a 0 -i 1 -k MAC 
- -t 0.206073049 -s 20 -d 19 -p ACK -e 5 -c 2 -a 0 -i 1 -k MAC
h -t 0.206073049 -s 20 -d 19 -p ACK -e 5 -c 2 -a 0 -i 1 -k MAC
r -t 0.206425098 -s 19 -d 19 -p ACK -e 5 -c 2 -a 0 -i 1 -k MAC
r -t 0.207065049 -s 20 -d 20 -p cbr -e 90 -c 2 -a 34 -i 1 -k MAC
+ -t 0.207435049 -s 20 -d 21 -p cbr -e 97 -c 2 -a 34 -i 1 -k MAC 
- -t 0.207435049 -s 20 -d 21 -p cbr -e 97 -c 2 -a 34 -i 1 -k MAC
h -t 0.207435049 -s 20 -d 21 -p cbr -e 97 -c 2 -a 34 -i 1 -k MAC
+ -t 0.210923096 -s 21 -d 20 -p ACK -e 5 -c 2 -a 0 -i 1 -k MAC 
- -t 0.210923096 -s 21 -d 20 -p ACK -e 5 -c 2 -a 0 -i 1 -k MAC
h -t 0.210923096 -s 21 -d 20 -p ACK -e 5 -c 2 -a 0 -i 1 -k MAC
r -t 0.211275143 -s 20 -d 20 -p ACK -e 5 -c 2 -a 0 -i 1 -k MAC
r -t 0.211915096 -s 21 -d 21 -p cbr -e 90 -c 2 -a 34 -i 1 -k MAC
+ -t 0.214525096 -s 21 -d 24 -p cbr -e 97 -c 2 -a 34 -i 1 -k MAC 
- -t 0.214525096 -s 21 -d 24 -p cbr -e 97 -c 2 -a 34 -i 1 -k MAC
h -t 0.214525096 -s 21 -d 24 -p cbr -e 97 -c 2 -a 34 -i 1 -k MAC
+ -t 0.218013124 -s 24 -d 21 -p ACK -e 5 -c 2 -a 0 -i 1 -k MAC 
- -t 0.218013124 -s 24 -d 21 -p ACK -e 5 -c 2 -a 0 -i 1 -k MAC
h -t 0.218013124 -s 24 -d 21 -p ACK -e 5 -c 2 -a 0 -i 1 -k MAC
r -t 0.218365153 -s 21 -d 21 -p ACK -e 5 -c 2 -a 0 -i 1 -k MAC
r -t 0.219005124 -s 24 -d 24 -p cbr -e 90 -c 2 -a 34 -i 1 -k MAC
+ -t 0.220975124 -s 24 -d 6 -p cbr -e 97 -c 2 -a 34 -i 1 -k MAC 
- -t 0.220975124 -s 24 -d 6 -p cbr -e 97 -c 2 -a 34 -i 1 -k MAC
h -t 0.220975124 -s 24 -d 6 -p cbr -e 97 -c 2 -a 34 -i 1 -k MAC
+ -t 0.224463154 -s 6 -d 24 -p ACK -e 5 -c 2 -a 0 -i 1 -k MAC 
- -t 0.224463154 -s 6 -d 24 -p ACK -e 5 -c 2 -a 0 -i 1 -k MAC
h -t 0.224463154 -s 6 -d 24 -p ACK -e 5 -c 2 -a 0 -i 1 -k MAC
r -t 0.224815184 -s 24 -d 24 -p ACK -e 5 -c 2 -a 0 -i 1 -k MAC
r -t 0.225455154 -s 6 -d 6 -p cbr -e 90 -c 2 -a 34 -i 1 -k MAC
v -t 0.3 -e sim_annotation 0.3 3 (at 0.3) cbr traffic from node 10 to node 4
v -t 0.300000001 -e set_rate_ext 0.5ms 1
+ -t 0.301625000 -s 10 -d -1 -p AODV -e 55 -c 2 -a 32 -i 0 -k MAC 
- -t 0.301625000 -s 10 -d -1 -p AODV -e 55 -c 2 -a 32 -i 0 -k MAC
h -t 0.301625000 -s 10 -d -1 -p AODV -e 55 -c 2 -a 32 -i 0 -k MAC -R 15.00 -D 0.00
r -t 0.304217028 -s 9 -d -1 -p AODV -e 48 -c 2 -a 32 -i 0 -k MAC
r -t 0.304217045 -s 13 -d -1 -p AODV -e 48 -c 2 -a 32 -i 0 -k MAC
+ -t 0.308008548 -s 9 -d -1 -p AODV -e 55 -c 2 -a 32 -i 0 -k MAC 
- -t 0.308008548 -s 9 -d -1 -p AODV -e 55 -c 2 -a 32 -i 0 -k MAC
h -t 0.308008548 -s 9 -d -1 -p AODV -e 55 -c 2 -a 32 -i 0 -k MAC -R 15.00 -D 0.00
r -t 0.310600576 -s 10 -d -1 -p AODV -e 48 -c 2 -a 32 -i 0 -k MAC
r -t 0.310600587 -s 13 -d -1 -p AODV -e 48 -c 2 -a 32 -i 0 -k MAC
+ -t 0.311131094 -s 13 -d -1 -p AODV -e 55 -c 2 -a 32 -i 0 -k MAC 
- -t 0.311131094 -s 13 -d -1 -p AODV -e 55 -c 2 -a 32 -i 0 -k MAC
h -t 0.311131094 -s 13 -d -1 -p AODV -e 55 -c 2 -a 32 -i 0 -k MAC -R 15.00 -D 0.00
r -t 0.313723128 -s 15 -d -1 -p AODV -e 48 -c 2 -a 32 -i 0 -k MAC
r -t 0.313723133 -s 9 -d -1 -p AODV -e 48 -c 2 -a 32 -i 0 -k MAC
r -t 0.313723139 -s 10 -d -1 -p AODV -e 48 -c 2 -a 32 -i 0 -k MAC
+ -t 0.321449663 -s 15 -d -1 -p AODV -e 55 -c 2 -a 32 -i 0 -k MAC 
- -t 0.321449663 -s 15 -d -1 -p AODV -e 55 -c 2 -a 32 -i 0 -k MAC
h -t 0.321449663 -s 15 -d -1 -p AODV -e 55 -c 2 -a 32 -i 0 -k MAC -R 15.00 -D 0.00
r -t 0.324041694 -s 4 -d -1 -p AODV -e 48 -c 2 -a 32 -i 0 -k MAC
r -t 0.324041698 -s 13 -d -1 -p AODV -e 48 -c 2 -a 32 -i 0 -k MAC
r -t 0.324041711 -s 20 -d -1 -p AODV -e 48 -c 2 -a 32 -i 0 -k MAC
+ -t 0.326631694 -s 4 -d -1 -p ARP -e 35 -c 2 -a 33 -i 0 -k MAC 
- -t 0.326631694 -s 4 -d -1 -p ARP -e 35 -c 2 -a 33 -i 0 -k MAC
h -t 0.326631694 -s 4 -d -1 -p ARP -e 35 -c 2 -a 33 -i 0 -k MAC -R 15.00 -D 0.00
r -t 0.328583724 -s 20 -d -1 -p ARP -e 28 -c 2 -a 33 -i 0 -k MAC
r -t 0.328583724 -s 15 -d -1 -p ARP -e 28 -c 2 -a 33 -i 0 -k MAC
+ -t 0.330508724 -s 15 -d -1 -p ARP -e 35 -c 2 -a 33 -i 0 -k MAC 
- -t 0.330508724 -s 15 -d -1 -p ARP -e 35 -c 2 -a 33 -i 0 -k MAC
h -t 0.330508724 -s 15 -d -1 -p ARP -e 35 -c 2 -a 33 -i 0 -k MAC -R 15.00 -D 0.00
+ -t 0.332012754 -s 4 -d 15 -p ACK -e 5 -c 2 -a 0 -i 0 -k MAC 
- -t 0.332012754 -s 4 -d 15 -p ACK -e 5 -c 2 -a 0 -i 0 -k MAC
h -t 0.332012754 -s 4 -d 15 -p ACK -e 5 -c 2 -a 0 -i 0 -k MAC
r -t 0.332364785 -s 15 -d 15 -p ACK -e 5 -c 2 -a 0 -i 0 -k MAC
r -t 0.333004754 -s 4 -d -1 -p ARP -e 28 -c 2 -a 33 -i 0 -k MAC
+ -t 0.335299720 -s 20 -d -1 -p AODV -e 55 -c 2 -a 32 -i 0 -k MAC 
- -t 0.335299720 -s 20 -d -1 -p AODV -e 55 -c 2 -a 32 -i 0 -k MAC
h -t 0.335299720 -s 20 -d -1 -p AODV -e 55 -c 2 -a 32 -i 0 -k MAC -R 15.00 -D 0.00
r -t 0.337891750 -s 4 -d -1 -p AODV -e 48 -c 2 -a 32 -i 0 -k MAC
r -t 0.337891767 -s 21 -d -1 -p AODV -e 48 -c 2 -a 32 -i 0 -k MAC
r -t 0.337891768 -s 15 -d -1 -p AODV -e 48 -c 2 -a 32 -i 0 -k MAC
r -t 0.337891769 -s 19 -d -1 -p AODV -e 48 -c 2 -a 32 -i 0 -k MAC
+ -t 0.338897754 -s 4 -d 15 -p AODV -e 51 -c 2 -a 32 -i 0 -k MAC 
- -t 0.338897754 -s 4 -d 15 -p AODV -e 51 -c 2 -a 32 -i 0 -k MAC
h -t 0.338897754 -s 4 -d 15 -p AODV -e 51 -c 2 -a 32 -i 0 -k MAC
+ -t 0.340913785 -s 15 -d 4 -p ACK -e 5 -c 2 -a 0 -i 0 -k MAC 
- -t 0.340913785 -s 15 -d 4 -p ACK -e 5 -c 2 -a 0 -i 0 -k MAC
h -t 0.340913785 -s 15 -d 4 -p ACK -e 5 -c 2 -a 0 -i 0 -k MAC
r -t 0.341265815 -s 4 -d 4 -p ACK -e 5 -c 2 -a 0 -i 0 -k MAC
+ -t 0.341628615 -s 21 -d -1 -p AODV -e 55 -c 2 -a 32 -i 0 -k MAC 
- -t 0.341628615 -s 21 -d -1 -p AODV -e 55 -c 2 -a 32 -i 0 -k MAC
h -t 0.341628615 -s 21 -d -1 -p AODV -e 55 -c 2 -a 32 -i 0 -k MAC -R 15.00 -D 0.00
r -t 0.341905785 -s 15 -d 15 -p AODV -e 44 -c 2 -a 32 -i 0 -k MAC
+ -t 0.342255785 -s 15 -d -1 -p ARP -e 35 -c 2 -a 33 -i 0 -k MAC 
- -t 0.342255785 -s 15 -d -1 -p ARP -e 35 -c 2 -a 33 -i 0 -k MAC
h -t 0.342255785 -s 15 -d -1 -p ARP -e 35 -c 2 -a 33 -i 0 -k MAC -R 15.00 -D 0.00
d -t 0.343580662 -s 20 -d -1 -p AODV -e 55 -c 2 -a 32 -i 0 -k MAC
r -t 0.344207815 -s 4 -d -1 -p ARP -e 28 -c 2 -a 33 -i 0 -k MAC
r -t 0.344207819 -s 13 -d -1 -p ARP -e 28 -c 2 -a 33 -i 0 -k MAC
r -t 0.344220643 -s 24 -d -1 -p AODV -e 48 -c 2 -a 32 -i 0 -k MAC
+ -t 0.345492819 -s 13 -d -1 -p ARP -e 35 -c 2 -a 33 -i 0 -k MAC 
- -t 0.345492819 -s 13 -d -1 -p ARP -e 35 -c 2 -a 33 -i 0 -k MAC
h -t 0.345492819 -s 13 -d -1 -p ARP -e 35 -c 2 -a 33 -i 0 -k MAC -R 15.00 -D 0.00
+ -t 0.346996854 -s 15 -d 13 -p ACK -e 5 -c 2 -a 0 -i 0 -k MAC 
- -t 0.346996854 -s 15 -d 13 -p ACK -e 5 -c 2 -a 0 -i 0 -k MAC
h -t 0.346996854 -s 15 -d 13 -p ACK -e 5 -c 2 -a 0 -i 0 -k MAC
r -t 0.347348889 -s 13 -d 13 -p ACK -e 5 -c 2 -a 0 -i 0 -k MAC
+ -t 0.347498950 -s 24 -d -1 -p AODV -e 55 -c 2 -a 32 -i 0 -k MAC 
- -t 0.347498950 -s 24 -d -1 -p AODV -e 55 -c 2 -a 32 -i 0 -k MAC
h -t 0.347498950 -s 24 -d -1 -p AODV -e 55 -c 2 -a 32 -i 0 -k MAC -R 15.00 -D 0.00
+ -t 0.347615217 -s 19 -d -1 -p AODV -e 55 -c 2 -a 32 -i 0 -k MAC 
- -t 0.347615217 -s 19 -d -1 -p AODV -e 55 -c 2 -a 32 -i 0 -k MAC
h -t 0.347615217 -s 19 -d -1 -p AODV -e 55 -c 2 -a 32 -i 0 -k MAC -R 15.00 -D 0.00
r -t 0.347988854 -s 15 -d -1 -p ARP -e 28 -c 2 -a 33 -i 0 -k MAC
+ -t 0.349913854 -s 15 -d 13 -p AODV -e 51 -c 2 -a 32 -i 0 -k MAC 
- -t 0.349913854 -s 15 -d 13 -p AODV -e 51 -c 2 -a 32 -i 0 -k MAC
h -t 0.349913854 -s 15 -d 13 -p AODV -e 51 -c 2 -a 32 -i 0 -k MAC
v -t 0.35 -e sim_annotation 0.35 4 cbr traffic from node 10 to node 4: 10 13 15 4
r -t 0.350090979 -s 21 -d -1 -p AODV -e 48 -c 2 -a 32 -i 0 -k MAC
r -t 0.350090980 -s 6 -d -1 -p AODV -e 48 -c 2 -a 32 -i 0 -k MAC
r -t 0.350207238 -s 23 -d -1 -p AODV -e 48 -c 2 -a 32 -i 0 -k MAC
r -t 0.350207243 -s 12 -d -1 -p AODV -e 48 -c 2 -a 32 -i 0 -k MAC
r -t 0.350207252 -s 22 -d -1 -p AODV -e 48 -c 2 -a 32 -i 0 -k MAC
r -t 0.350207253 -s 2 -d -1 -p AODV -e 48 -c 2 -a 32 -i 0 -k MAC
r -t 0.350207262 -s 7 -d -1 -p AODV -e 48 -c 2 -a 32 -i 0 -k MAC
r -t 0.350207264 -s 8 -d -1 -p AODV -e 48 -c 2 -a 32 -i 0 -k MAC
r -t 0.350207266 -s 20 -d -1 -p AODV -e 48 -c 2 -a 32 -i 0 -k MAC
+ -t 0.351929889 -s 13 -d 15 -p ACK -e 5 -c 2 -a 0 -i 0 -k MAC 
- -t 0.351929889 -s 13 -d 15 -p ACK -e 5 -c 2 -a 0 -i 0 -k MAC
h -t 0.351929889 -s 13 -d 15 -p ACK -e 5 -c 2 -a 0 -i 0 -k MAC
r -t 0.352281923 -s 15 -d 15 -p ACK -e 5 -c 2 -a 0 -i 0 -k MAC
r -t 0.352921889 -s 13 -d 13 -p AODV -e 44 -c 2 -a 32 -i 0 -k MAC
+ -t 0.353827021 -s 22 -d -1 -p AODV -e 55 -c 2 -a 32 -i 0 -k MAC 
- -t 0.353827021 -s 22 -d -1 -p AODV -e 55 -c 2 -a 32 -i 0 -k MAC
h -t 0.353827021 -s 22 -d -1 -p AODV -e 55 -c 2 -a 32 -i 0 -k MAC -R 15.00 -D 0.00
+ -t 0.354871889 -s 13 -d -1 -p ARP -e 35 -c 2 -a 33 -i 0 -k MAC 
- -t 0.354871889 -s 13 -d -1 -p ARP -e 35 -c 2 -a 33 -i 0 -k MAC
h -t 0.354871889 -s 13 -d -1 -p ARP -e 35 -c 2 -a 33 -i 0 -k MAC -R 15.00 -D 0.00
r -t 0.356419034 -s 12 -d -1 -p AODV -e 48 -c 2 -a 32 -i 0 -k MAC
r -t 0.356419037 -s 8 -d -1 -p AODV -e 48 -c 2 -a 32 -i 0 -k MAC
r -t 0.356419053 -s 7 -d -1 -p AODV -e 48 -c 2 -a 32 -i 0 -k MAC
r -t 0.356419055 -s 19 -d -1 -p AODV -e 48 -c 2 -a 32 -i 0 -k MAC
r -t 0.356419060 -s 11 -d -1 -p AODV -e 48 -c 2 -a 32 -i 0 -k MAC
r -t 0.356419066 -s 23 -d -1 -p AODV -e 48 -c 2 -a 32 -i 0 -k MAC
r -t 0.356419067 -s 2 -d -1 -p AODV -e 48 -c 2 -a 32 -i 0 -k MAC
+ -t 0.356511346 -s 12 -d -1 -p AODV -e 55 -c 2 -a 32 -i 0 -k MAC 
- -t 0.356511346 -s 12 -d -1 -p AODV -e 55 -c 2 -a 32 -i 0 -k MAC