v 0 eval {set sim_annotation {(at 0.0) cbr traffic from node 19 to node 6}}
s 0.000665000 _19_ MAC  --- 0 AODV 55 [0 ffffffff 13 800] [energy 19.999840 ei 0.000 es 0.000 et 0.000 er 0.000] ------- [19:255 -1:255 30 0] [0x2 1 1 [6 0] [19 4]] (REQUEST)
N -t 0.000665 -n 23 -e 19.999024
N -t 0.000665 -n 12 -e 19.999024
N -t 0.000665 -n 22 -e 19.999024
N -t 0.000665 -n 2 -e 19.999024
N -t 0.000665 -n 7 -e 19.999024
N -t 0.000665 -n 8 -e 19.999024
N -t 0.000665 -n 20 -e 19.999024
r 0.003257021 _23_ MAC  --- 0 AODV 48 [0 ffffffff 13 800] [energy 19.999024 ei 0.000 es 0.000 et 0.000 er 0.001] ------- [19:255 -1:255 30 0] [0x2 1 1 [6 0] [19 4]] (REQUEST)
r 0.003257026 _12_ MAC  --- 0 AODV 48 [0 ffffffff 13 800] [energy 19.999024 ei 0.000 es 0.000 et 0.000 er 0.001] ------- [19:255 -1:255 30 0] [0x2 1 1 [6 0] [19 4]] (REQUEST)
r 0.003257035 _22_ MAC  --- 0 AODV 48 [0 ffffffff 13 800] [energy 19.999024 ei 0.000 es 0.000 et 0.000 er 0.001] ------- [19:255 -1:255 30 0] [0x2 1 1 [6 0] [19 4]] (REQUEST)
r 0.003257036 _2_ MAC  --- 0 AODV 48 [0 ffffffff 13 800] [energy 19.999024 ei 0.000 es 0.000 et 0.000 er 0.001] ------- [19:255 -1:255 30 0] [0x2 1 1 [6 0] [19 4]] (REQUEST)
r 0.003257045 _7_ MAC  --- 0 AODV 48 [0 ffffffff 13 800] [energy 19.999024 ei 0.000 es 0.000 et 0.000 er 0.001] ------- [19:255 -1:255 30 0] [0x2 1 1 [6 0] [19 4]] (REQUEST)
r 0.003257047 _8_ MAC  --- 0 AODV 48 [0 ffffffff 13 800] [energy 19.999024 ei 0.000 es 0.000 et 0.000 er 0.001] ------- [19:255 -1:255 30 0] [0x2 1 1 [6 0] [19 4]] (REQUEST)
r 0.003257049 _20_ MAC  --- 0 AODV 48 [0 ffffffff 13 800] [energy 19.999024 ei 0.000 es 0.000 et 0.000 er 0.001] ------- [19:255 -1:255 30 0] [0x2 1 1 [6 0] [19 4]] (REQUEST)
s 0.003902622 _8_ MAC  --- 0 AODV 55 [0 ffffffff 8 800] [energy 19.998863 ei 0.000 es 0.000 et 0.000 er 0.001] ------- [8:255 -1:255 29 0] [0x2 2 1 [6 0] [19 4]] (REQUEST)
N -t 0.003903 -n 22 -e 19.998047
N -t 0.003903 -n 12 -e 19.998047
N -t 0.003903 -n 11 -e 19.999022
N -t 0.003903 -n 7 -e 19.998047
N -t 0.003903 -n 2 -e 19.998047
N -t 0.003903 -n 19 -e 19.989494
r 0.006494638 _22_ MAC  --- 0 AODV 48 [0 ffffffff 8 800] [energy 19.998047 ei 0.000 es 0.000 et 0.000 er 0.002] ------- [8:255 -1:255 29 0] [0x2 2 1 [6 0] [19 4]] (REQUEST)
r 0.006494643 _12_ MAC  --- 0 AODV 48 [0 ffffffff 8 800] [energy 19.998047 ei 0.000 es 0.000 et 0.000 er 0.002] ------- [8:255 -1:255 29 0] [0x2 2 1 [6 0] [19 4]] (REQUEST)
r 0.006494646 _11_ MAC  --- 0 AODV 48 [0 ffffffff 8 800] [energy 19.999022 ei 0.000 es 0.000 et 0.000 er 0.001] ------- [8:255 -1:255 29 0] [0x2 2 1 [6 0] [19 4]] (REQUEST)
r 0.006494646 _7_ MAC  --- 0 AODV 48 [0 ffffffff 8 800] [energy 19.998047 ei 0.000 es 0.000 et 0.000 er 0.002] ------- [8:255 -1:255 29 0] [0x2 2 1 [6 0] [19 4]] (REQUEST)
r 0.006494668 _2_ MAC  --- 0 AODV 48 [0 ffffffff 8 800] [energy 19.998047 ei 0.000 es 0.000 et 0.000 er 0.002] ------- [8:255 -1:255 29 0] [0x2 2 1 [6 0] [19 4]] (REQUEST)
r 0.006494669 _19_ MAC  --- 0 AODV 48 [0 ffffffff 8 800] [energy 19.989494 ei 0.000 es 0.000 et 0.009 er 0.001] ------- [8:255 -1:255 29 0] [0x2 2 1 [6 0] [19 4]] (REQUEST)
s 0.008165276 _22_ MAC  --- 0 AODV 55 [0 ffffffff 16 800] [energy 19.997886 ei 0.000 es 0.000 et 0.000 er 0.002] ------- [22:255 -1:255 29 0] [0x2 2 1 [6 0] [19 4]] (REQUEST)
N -t 0.008165 -n 12 -e 19.997070
N -t 0.008165 -n 8 -e 19.988516
N -t 0.008165 -n 7 -e 19.996910
N -t 0.008165 -n 19 -e 19.988516
N -t 0.008165 -n 11 -e 19.998045
N -t 0.008165 -n 23 -e 19.998045
N -t 0.008165 -n 2 -e 19.997070
s 0.008180219 _20_ MAC  --- 0 AODV 55 [0 ffffffff 14 800] [energy 19.998861 ei 0.000 es 0.000 et 0.000 er 0.001] ------- [20:255 -1:255 29 0] [0x2 2 1 [6 0] [19 4]] (REQUEST)
N -t 0.008180 -n 4 -e 19.999020
N -t 0.008180 -n 21 -e 19.999020
N -t 0.008180 -n 15 -e 19.999020
N -t 0.008180 -n 19 -e 19.988509
s 0.008203918 _7_ MAC  --- 0 AODV 55 [0 ffffffff 7 800] [energy 19.996910 ei 0.000 es 0.000 et 0.000 er 0.003] ------- [7:255 -1:255 29 0] [0x2 2 1 [6 0] [19 4]] (REQUEST)
N -t 0.008204 -n 8 -e 19.988497
N -t 0.008204 -n 12 -e 19.997051
N -t 0.008204 -n 2 -e 19.997051
N -t 0.008204 -n 5 -e 19.999020
N -t 0.008204 -n 22 -e 19.988497
N -t 0.008204 -n 14 -e 19.999020
N -t 0.008204 -n 11 -e 19.998026
N -t 0.008204 -n 23 -e 19.998026
N -t 0.008204 -n 16 -e 19.999020
N -t 0.008204 -n 19 -e 19.988497
D 0.010117289 _12_ MAC  LQI 0 AODV 55 [0 ffffffff 16 800] [energy 19.997051 ei 0.000 es 0.000 et 0.000 er 0.003] ------- [22:255 -1:255 29 0] [0x2 2 1 [6 0] [19 4]] (REQUEST)
D 0.010117293 _8_ MAC  LQI 0 AODV 55 [0 ffffffff 16 800] [energy 19.988497 ei 0.000 es 0.000 et 0.009 er 0.002] ------- [22:255 -1:255 29 0] [0x2 2 1 [6 0] [19 4]] (REQUEST)
D 0.010117311 _19_ MAC  LQI 0 AODV 55 [0 ffffffff 16 800] [energy 19.988497 ei 0.000 es 0.000 et 0.009 er 0.002] ------- [22:255 -1:255 29 0] [0x2 2 1 [6 0] [19 4]] (REQUEST)
D 0.010155944 _2_ MAC  LQI 0 AODV 55 [0 ffffffff 7 800] [energy 19.997051 ei 0.000 es 0.000 et 0.000 er 0.003] ------- [7:255 -1:255 29 0] [0x2 2 1 [6 0] [19 4]] (REQUEST)
D 0.010155956 _11_ MAC  LQI 0 AODV 55 [0 ffffffff 7 800] [energy 19.998026 ei 0.000 es 0.000 et 0.000 er 0.002] ------- [7:255 -1:255 29 0] [0x2 2 1 [6 0] [19 4]] (REQUEST)
D 0.010155957 _23_ MAC  LQI 0 AODV 55 [0 ffffffff 7 800] [energy 19.998026 ei 0.000 es 0.000 et 0.000 er 0.002] ------- [7:255 -1:255 29 0] [0x2 2 1 [6 0] [19 4]] (REQUEST)
s 0.010675241 _23_ MAC  --- 0 AODV 55 [0 ffffffff 17 800] [energy 19.997866 ei 0.000 es 0.000 et 0.000 er 0.002] ------- [23:255 -1:255 29 0] [0x2 2 1 [6 0] [19 4]] (REQUEST)
N -t 0.010675 -n 2 -e 19.996074
N -t 0.010675 -n 19 -e 19.987521
N -t 0.010675 -n 12 -e 19.996074
N -t 0.010675 -n 7 -e 19.995748
N -t 0.010675 -n 14 -e 19.998044
N -t 0.010675 -n 22 -e 19.987521
N -t 0.010675 -n 5 -e 19.998044
r 0.010772249 _4_ MAC  --- 0 AODV 48 [0 ffffffff 14 800] [energy 19.999020 ei 0.000 es 0.000 et 0.000 er 0.001] ------- [20:255 -1:255 29 0] [0x2 2 1 [6 0] [19 4]] (REQUEST)
r 0.010772266 _21_ MAC  --- 0 AODV 48 [0 ffffffff 14 800] [energy 19.999020 ei 0.000 es 0.000 et 0.000 er 0.001] ------- [20:255 -1:255 29 0] [0x2 2 1 [6 0] [19 4]] (REQUEST)
r 0.010772267 _15_ MAC  --- 0 AODV 48 [0 ffffffff 14 800] [energy 19.999020 ei 0.000 es 0.000 et 0.000 er 0.001] ------- [20:255 -1:255 29 0] [0x2 2 1 [6 0] [19 4]] (REQUEST)
r 0.010795948 _5_ MAC  --- 0 AODV 48 [0 ffffffff 7 800] [energy 19.998044 ei 0.000 es 0.000 et 0.000 er 0.002] ------- [7:255 -1:255 29 0] [0x2 2 1 [6 0] [19 4]] (REQUEST)
r 0.010795952 _14_ MAC  --- 0 AODV 48 [0 ffffffff 7 800] [energy 19.998044 ei 0.000 es 0.000 et 0.000 er 0.002] ------- [7:255 -1:255 29 0] [0x2 2 1 [6 0] [19 4]] (REQUEST)
r 0.010795961 _16_ MAC  --- 0 AODV 48 [0 ffffffff 7 800] [energy 19.999020 ei 0.000 es 0.000 et 0.000 er 0.001] ------- [7:255 -1:255 29 0] [0x2 2 1 [6 0] [19 4]] (REQUEST)
s 0.012695835 _21_ MAC  --- 0 AODV 55 [0 ffffffff 15 800] [energy 19.998859 ei 0.000 es 0.000 et 0.000 er 0.001] ------- [21:255 -1:255 28 0] [0x2 3 1 [6 0] [19 4]] (REQUEST)
N -t 0.012696 -n 24 -e 19.999018
N -t 0.012696 -n 20 -e 19.988514
r 0.013267260 _2_ MAC  --- 0 AODV 48 [0 ffffffff 17 800] [energy 19.995754 ei 0.000 es 0.000 et 0.000 er 0.004] ------- [23:255 -1:255 29 0] [0x2 2 1 [6 0] [19 4]] (REQUEST)
r 0.013267262 _19_ MAC  --- 0 AODV 48 [0 ffffffff 17 800] [energy 19.987521 ei 0.000 es 0.000 et 0.009 er 0.003] ------- [23:255 -1:255 29 0] [0x2 2 1 [6 0] [19 4]] (REQUEST)
r 0.013267273 _12_ MAC  --- 0 AODV 48 [0 ffffffff 17 800] [energy 19.996074 ei 0.000 es 0.000 et 0.000 er 0.004] ------- [23:255 -1:255 29 0] [0x2 2 1 [6 0] [19 4]] (REQUEST)
r 0.013267280 _7_ MAC  --- 0 AODV 48 [0 ffffffff 17 800] [energy 19.995748 ei 0.000 es 0.000 et 0.000 er 0.004] ------- [23:255 -1:255 29 0] [0x2 2 1 [6 0] [19 4]] (REQUEST)
r 0.013267283 _14_ MAC  --- 0 AODV 48 [0 ffffffff 17 800] [energy 19.998044 ei 0.000 es 0.000 et 0.000 er 0.002] ------- [23:255 -1:255 29 0] [0x2 2 1 [6 0] [19 4]] (REQUEST)
r 0.013267286 _22_ MAC  --- 0 AODV 48 [0 ffffffff 17 800] [energy 19.987521 ei 0.000 es 0.000 et 0.009 er 0.003] ------- [23:255 -1:255 29 0] [0x2 2 1 [6 0] [19 4]] (REQUEST)
r 0.013267289 _5_ MAC  --- 0 AODV 48 [0 ffffffff 17 800] [energy 19.997724 ei 0.000 es 0.000 et 0.000 er 0.002] ------- [23:255 -1:255 29 0] [0x2 2 1 [6 0] [19 4]] (REQUEST)
s 0.014313583 _12_ MAC  --- 0 AODV 55 [0 ffffffff c 800] [energy 19.995914 ei 0.000 es 0.000 et 0.000 er 0.004] ------- [12:255 -1:255 29 0] [0x2 2 1 [6 0] [19 4]] (REQUEST)
N -t 0.014314 -n 22 -e 19.986544
N -t 0.014314 -n 8 -e 19.987519
N -t 0.014314 -n 7 -e 19.994772
N -t 0.014314 -n 19 -e 19.986544
N -t 0.014314 -n 23 -e 19.987519
N -t 0.014314 -n 2 -e 19.994778
N -t 0.014314 -n 11 -e 19.997047
s 0.014355282 _5_ MAC  --- 0 AODV 55 [0 ffffffff 5 800] [energy 19.997563 ei 0.000 es 0.000 et 0.000 er 0.002] ------- [5:255 -1:255 28 0] [0x2 3 1 [6 0] [19 4]] (REQUEST)
N -t 0.014355 -n 14 -e 19.997067
N -t 0.014355 -n 2 -e 19.994757
N -t 0.014355 -n 7 -e 19.994751
N -t 0.014355 -n 16 -e 19.998042
N -t 0.014355 -n 0 -e 19.999017
N -t 0.014355 -n 23 -e 19.987498
r 0.015287863 _24_ MAC  --- 0 AODV 48 [0 ffffffff 15 800] [energy 19.999018 ei 0.000 es 0.000 et 0.000 er 0.001] ------- [21:255 -1:255 28 0] [0x2 3 1 [6 0] [19 4]] (REQUEST)
r 0.015287882 _20_ MAC  --- 0 AODV 48 [0 ffffffff 15 800] [energy 19.988514 ei 0.000 es 0.000 et 0.009 er 0.002] ------- [21:255 -1:255 28 0] [0x2 3 1 [6 0] [19 4]] (REQUEST)
D 0.016265608 _7_ MAC  LQI 0 AODV 55 [0 ffffffff c 800] [energy 19.994751 ei 0.000 es 0.000 et 0.000 er 0.005] ------- [12:255 -1:255 29 0] [0x2 2 1 [6 0] [19 4]] (REQUEST)
D 0.016265615 _23_ MAC  LQI 0 AODV 55 [0 ffffffff c 800] [energy 19.987498 ei 0.000 es 0.000 et 0.009 er 0.003] ------- [12:255 -1:255 29 0] [0x2 2 1 [6 0] [19 4]] (REQUEST)
D 0.016307310 _2_ MAC  LQI 0 AODV 55 [0 ffffffff 5 800] [energy 19.994437 ei 0.000 es 0.000 et 0.000 er 0.006] ------- [5:255 -1:255 28 0] [0x2 3 1 [6 0] [19 4]] (REQUEST)
r 0.016905596 _22_ MAC  --- 0 AODV 48 [0 ffffffff c 800] [energy 19.986544 ei 0.000 es 0.000 et 0.009 er 0.004] ------- [12:255 -1:255 29 0] [0x2 2 1 [6 0] [19 4]] (REQUEST)
r 0.016905604 _8_ MAC  --- 0 AODV 48 [0 ffffffff c 800] [energy 19.987519 ei 0.000 es 0.000 et 0.009 er 0.003] ------- [12:255 -1:255 29 0] [0x2 2 1 [6 0] [19 4]] (REQUEST)
r 0.016905609 _19_ MAC  --- 0 AODV 48 [0 ffffffff c 800] [energy 19.986544 ei 0.000 es 0.000 et 0.009 er 0.004] ------- [12:255 -1:255 29 0] [0x2 2 1 [6 0] [19 4]] (REQUEST)
r 0.016905628 _11_ MAC  --- 0 AODV 48 [0 ffffffff c 800] [energy 19.996408 ei 0.000 es 0.000 et 0.000 er 0.004] ------- [12:255 -1:255 29 0] [0x2 2 1 [6 0] [19 4]] (REQUEST)
r 0.016947291 _14_ MAC  --- 0 AODV 48 [0 ffffffff 5 800] [energy 19.997067 ei 0.000 es 0.000 et 0.000 er 0.003] ------- [5:255 -1:255 28 0] [0x2 3 1 [6 0] [19 4]] (REQUEST)
r 0.016947313 _16_ MAC  --- 0 AODV 48 [0 ffffffff 5 800] [energy 19.998042 ei 0.000 es 0.000 et 0.000 er 0.002] ------- [5:255 -1:255 28 0] [0x2 3 1 [6 0] [19 4]] (REQUEST)
r 0.016947318 _0_ MAC  --- 0 AODV 48 [0 ffffffff 5 800] [energy 19.999017 ei 0.000 es 0.000 et 0.000 er 0.001] ------- [5:255 -1:255 28 0] [0x2 3 1 [6 0] [19 4]] (REQUEST)
s 0.017454947 _16_ MAC  --- 0 AODV 55 [0 ffffffff 10 800] [energy 19.997881 ei 0.000 es 0.000 et 0.000 er 0.002] ------- [16:255 -1:255 28 0] [0x2 3 1 [6 0] [19 4]] (REQUEST)
N -t 0.017455 -n 0 -e 19.998040
N -t 0.017455 -n 5 -e 19.987217
N -t 0.017455 -n 3 -e 19.999015
N -t 0.017455 -n 14 -e 19.996090
N -t 0.017455 -n 7 -e 19.993774
s 0.017751433 _2_ MAC  --- 0 AODV 55 [0 ffffffff 2 800] [energy 19.994276 ei 0.000 es 0.000 et 0.000 er 0.006] ------- [2:255 -1:255 29 0] [0x2 2 1 [6 0] [19 4]] (REQUEST)
N -t 0.017751 -n 23 -e 19.986521
N -t 0.017751 -n 14 -e 19.995942
N -t 0.017751 -n 7 -e 19.993626
N -t 0.017751 -n 5 -e 19.987069
N -t 0.017751 -n 12 -e 19.985567
N -t 0.017751 -n 19 -e 19.985567
N -t 0.017751 -n 8 -e 19.986542
N -t 0.017751 -n 22 -e 19.985567
s 0.017979484 _15_ MAC  --- 0 AODV 55 [0 ffffffff f 800] [energy 19.998856 ei 0.000 es 0.000 et 0.000 er 0.001] ------- [15:255 -1:255 28 0] [0x2 3 1 [6 0] [19 4]] (REQUEST)
N -t 0.017980 -n 4 -e 19.998040
N -t 0.017980 -n 13 -e 19.999015
N -t 0.017980 -n 20 -e 19.987536
D 0.019703457 _14_ MAC  LQI 0 AODV 55 [0 ffffffff 2 800] [energy 19.995942 ei 0.000 es 0.000 et 0.000 er 0.004] ------- [2:255 -1:255 29 0] [0x2 2 1 [6 0] [19 4]] (REQUEST)
D 0.019703459 _7_ MAC  LQI 0 AODV 55 [0 ffffffff 2 800] [energy 19.993626 ei 0.000 es 0.000 et 0.000 er 0.006] ------- [2:255 -1:255 29 0] [0x2 2 1 [6 0] [19 4]] (REQUEST)
D 0.019703462 _5_ MAC  LQI 0 AODV 55 [0 ffffffff 2 800] [energy 19.987069 ei 0.000 es 0.000 et 0.009 er 0.004] ------- [2:255 -1:255 29 0] [0x2 2 1 [6 0] [19 4]] (REQUEST)
r 0.020046972 _0_ MAC  --- 0 AODV 48 [0 ffffffff 10 800] [energy 19.998040 ei 0.000 es 0.000 et 0.000 er 0.002] ------- [16:255 -1:255 28 0] [0x2 3 1 [6 0] [19 4]] (REQUEST)
r 0.020046980 _3_ MAC  --- 0 AODV 48 [0 ffffffff 10 800] [energy 19.999015 ei 0.000 es 0.000 et 0.000 er 0.001] ------- [16:255 -1:255 28 0] [0x2 3 1 [6 0] [19 4]] (REQUEST)
s 0.020137006 _14_ MAC  --- 0 AODV 55 [0 ffffffff e 800] [energy 19.995782 ei 0.000 es 0.000 et 0.000 er 0.004] ------- [14:255 -1:255 28 0] [0x2 3 1 [6 0] [19 4]] (REQUEST)
N -t 0.020137 -n 5 -e 19.986092
N -t 0.020137 -n 2 -e 19.983931
N -t 0.020137 -n 7 -e 19.992650
N -t 0.020137 -n 16 -e 19.987535
N -t 0.020137 -n 0 -e 19.997064
N -t 0.020137 -n 23 -e 19.985545
r 0.020343453 _23_ MAC  --- 0 AODV 48 [0 ffffffff 2 800] [energy 19.985545 ei 0.000 es 0.000 et 0.009 er 0.005] ------- [2:255 -1:255 29 0] [0x2 2 1 [6 0] [19 4]] (REQUEST)
r 0.020343467 _12_ MAC  --- 0 AODV 48 [0 ffffffff 2 800] [energy 19.985567 ei 0.000 es 0.000 et 0.009 er 0.005] ------- [2:255 -1:255 29 0] [0x2 2 1 [6 0] [19 4]] (REQUEST)
r 0.020343470 _19_ MAC  --- 0 AODV 48 [0 ffffffff 2 800] [energy 19.985567 ei 0.000 es 0.000 et 0.009 er 0.005] ------- [2:255 -1:255 29 0] [0x2 2 1 [6 0] [19 4]] (REQUEST)
r 0.020343479 _8_ MAC  --- 0 AODV 48 [0 ffffffff 2 800] [energy 19.986542 ei 0.000 es 0.000 et 0.009 er 0.004] ------- [2:255 -1:255 29 0] [0x2 2 1 [6 0] [19 4]] (REQUEST)
r 0.020343479 _22_ MAC  --- 0 AODV 48 [0 ffffffff 2 800] [energy 19.985567 ei 0.000 es 0.000 et 0.009 er 0.005] ------- [2:255 -1:255 29 0] [0x2 2 1 [6 0] [19 4]] (REQUEST)
r 0.020571514 _4_ MAC  --- 0 AODV 48 [0 ffffffff f 800] [energy 19.998040 ei 0.000 es 0.000 et 0.000 er 0.002] ------- [15:255 -1:255 28 0] [0x2 3 1 [6 0] [19 4]] (REQUEST)
r 0.020571518 _13_ MAC  --- 0 AODV 48 [0 ffffffff f 800] [energy 19.999015 ei 0.000 es 0.000 et 0.000 er 0.001] ------- [15:255 -1:255 28 0] [0x2 3 1 [6 0] [19 4]] (REQUEST)
r 0.020571532 _20_ MAC  --- 0 AODV 48 [0 ffffffff f 800] [energy 19.987536 ei 0.000 es 0.000 et 0.009 er 0.003] ------- [15:255 -1:255 28 0] [0x2 3 1 [6 0] [19 4]] (REQUEST)
r 0.022729016 _5_ MAC  --- 0 AODV 48 [0 ffffffff e 800] [energy 19.986092 ei 0.000 es 0.000 et 0.009 er 0.005] ------- [14:255 -1:255 28 0] [0x2 3 1 [6 0] [19 4]] (REQUEST)
r 0.022729030 _2_ MAC  --- 0 AODV 48 [0 ffffffff e 800] [energy 19.983931 ei 0.000 es 0.000 et 0.009 er 0.007] ------- [14:255 -1:255 28 0] [0x2 3 1 [6 0] [19 4]] (REQUEST)
r 0.022729040 _7_ MAC  --- 0 AODV 48 [0 ffffffff e 800] [energy 19.992650 ei 0.000 es 0.000 et 0.000 er 0.007] ------- [14:255 -1:255 28 0] [0x2 3 1 [6 0] [19 4]] (REQUEST)
r 0.022729047 _16_ MAC  --- 0 AODV 48 [0 ffffffff e 800] [energy 19.987535 ei 0.000 es 0.000 et 0.009 er 0.003] ------- [14:255 -1:255 28 0] [0x2 3 1 [6 0] [19 4]] (REQUEST)
r 0.022729048 _0_ MAC  --- 0 AODV 48 [0 ffffffff e 800] [energy 19.997064 ei 0.000 es 0.000 et 0.000 er 0.003] ------- [14:255 -1:255 28 0] [0x2 3 1 [6 0] [19 4]] (REQUEST)
r 0.022729049 _23_ MAC  --- 0 AODV 48 [0 ffffffff e 800] [energy 19.985545 ei 0.000 es 0.000 et 0.009 er 0.005] ------- [14:255 -1:255 28 0] [0x2 3 1 [6 0] [19 4]] (REQUEST)
s 0.023142316 _4_ MAC  --- 0 AODV 55 [0 ffffffff 4 800] [energy 19.997879 ei 0.000 es 0.000 et 0.000 er 0.002] ------- [4:255 -1:255 28 0] [0x2 3 1 [6 0] [19 4]] (REQUEST)
N -t 0.023142 -n 20 -e 19.986559
N -t 0.023142 -n 15 -e 19.988509
s 0.025044326 _24_ MAC  --- 0 AODV 55 [0 ffffffff 18 800] [energy 19.998853 ei 0.000 es 0.000 et 0.000 er 0.001] ------- [24:255 -1:255 27 0] [0x2 4 1 [6 0] [19 4]] (REQUEST)
N -t 0.025044 -n 21 -e 19.988508
N -t 0.025044 -n 6 -e 19.999011
r 0.025734346 _20_ MAC  --- 0 AODV 48 [0 ffffffff 4 800] [energy 19.986559 ei 0.000 es 0.000 et 0.009 er 0.004] ------- [4:255 -1:255 28 0] [0x2 3 1 [6 0] [19 4]] (REQUEST)
r 0.025734346 _15_ MAC  --- 0 AODV 48 [0 ffffffff 4 800] [energy 19.988509 ei 0.000 es 0.000 et 0.009 er 0.002] ------- [4:255 -1:255 28 0] [0x2 3 1 [6 0] [19 4]] (REQUEST)
s 0.025868808 _11_ MAC  --- 0 AODV 55 [0 ffffffff b 800] [energy 19.996243 ei 0.000 es 0.000 et 0.000 er 0.004] ------- [11:255 -1:255 28 0] [0x2 3 1 [6 0] [19 4]] (REQUEST)
N -t 0.025869 -n 8 -e 19.985563
N -t 0.025869 -n 7 -e 19.991672
N -t 0.025869 -n 22 -e 19.984588
N -t 0.025869 -n 3 -e 19.998036
N -t 0.025869 -n 12 -e 19.984588
s 0.026433141 _0_ MAC  --- 0 AODV 55 [0 ffffffff 0 800] [energy 19.996902 ei 0.000 es 0.000 et 0.000 er 0.003] ------- [0:255 -1:255 27 0] [0x2 4 1 [6 0] [19 4]] (REQUEST)
N -t 0.026433 -n 16 -e 19.986557
N -t 0.026433 -n 5 -e 19.985114
N -t 0.026433 -n 14 -e 19.985434
s 0.026925294 _13_ MAC  --- 0 AODV 55 [0 ffffffff d 800] [energy 19.998852 ei 0.000 es 0.000 et 0.000 er 0.001] ------- [13:255 -1:255 27 0] [0x2 4 1 [6 0] [19 4]] (REQUEST)
N -t 0.026925 -n 15 -e 19.987532
N -t 0.026925 -n 9 -e 19.999011
N -t 0.026925 -n 10 -e 19.999011
r 0.027636355 _21_ MAC  --- 0 AODV 48 [0 ffffffff 18 800] [energy 19.988508 ei 0.000 es 0.000 et 0.009 er 0.002] ------- [24:255 -1:255 27 0] [0x2 4 1 [6 0] [19 4]] (REQUEST)
r 0.027636357 _6_ MAC  --- 0 AODV 48 [0 ffffffff 18 800] [energy 19.999011 ei 0.000 es 0.000 et 0.000 er 0.001] ------- [24:255 -1:255 27 0] [0x2 4 1 [6 0] [19 4]] (REQUEST)
r 0.028460833 _8_ MAC  --- 0 AODV 48 [0 ffffffff b 800] [energy 19.985563 ei 0.000 es 0.000 et 0.009 er 0.005] ------- [11:255 -1:255 28 0] [0x2 3 1 [6 0] [19 4]] (REQUEST)
r 0.028460846 _7_ MAC  --- 0 AODV 48 [0 ffffffff b 800] [energy 19.991672 ei 0.000 es 0.000 et 0.000 er 0.008] ------- [11:255 -1:255 28 0] [0x2 3 1 [6 0] [19 4]] (REQUEST)
r 0.028460848 _22_ MAC  --- 0 AODV 48 [0 ffffffff b 800] [energy 19.984588 ei 0.000 es 0.000 et 0.009 er 0.006] ------- [11:255 -1:255 28 0] [0x2 3 1 [6 0] [19 4]] (REQUEST)
r 0.028460852 _3_ MAC  --- 0 AODV 48 [0 ffffffff b 800] [energy 19.997876 ei 0.000 es 0.000 et 0.000 er 0.002] ------- [11:255 -1:255 28 0] [0x2 3 1 [6 0] [19 4]] (REQUEST)
r 0.028460854 _12_ MAC  --- 0 AODV 48 [0 ffffffff b 800] [energy 19.984588 ei 0.000 es 0.000 et 0.009 er 0.006] ------- [11:255 -1:255 28 0] [0x2 3 1 [6 0] [19 4]] (REQUEST)
s 0.028626357 _6_ MAC  --- 0 ARP 35 [0 ffffffff 6 806] [energy 19.998851 ei 0.000 es 0.000 et 0.000 er 0.001] ------- [REQUEST 6/6 0/24]
N -t 0.028626 -n 24 -e 19.988826
s 0.028652239 _3_ MAC  --- 0 AODV 55 [0 ffffffff 3 800] [energy 19.997876 ei 0.000 es 0.000 et 0.000 er 0.002] ------- [3:255 -1:255 27 0] [0x2 4 1 [6 0] [19 4]] (REQUEST)
N -t 0.028652 -n 16 -e 19.985581
N -t 0.028652 -n 11 -e 19.985897
r 0.029025166 _16_ MAC  --- 0 AODV 48 [0 ffffffff 0 800] [energy 19.985581 ei 0.000 es 0.000 et 0.009 er 0.005] ------- [0:255 -1:255 27 0] [0x2 4 1 [6 0] [19 4]] (REQUEST)
r 0.029025177 _5_ MAC  --- 0 AODV 48 [0 ffffffff 0 800] [energy 19.985114 ei 0.000 es 0.000 et 0.009 er 0.006] ------- [0:255 -1:255 27 0] [0x2 4 1 [6 0] [19 4]] (REQUEST)
r 0.029025183 _14_ MAC  --- 0 AODV 48 [0 ffffffff 0 800] [energy 19.985434 ei 0.000 es 0.000 et 0.009 er 0.005] ------- [0:255 -1:255 27 0] [0x2 4 1 [6 0] [19 4]] (REQUEST)
r 0.029517328 _15_ MAC  --- 0 AODV 48 [0 ffffffff d 800] [energy 19.987532 ei 0.000 es 0.000 et 0.009 er 0.003] ------- [13:255 -1:255 27 0] [0x2 4 1 [6 0] [19 4]] (REQUEST)
r 0.029517333 _9_ MAC  --- 0 AODV 48 [0 ffffffff d 800] [energy 19.999011 ei 0.000 es 0.000 et 0.000 er 0.001] ------- [13:255 -1:255 27 0] [0x2 4 1 [6 0] [19 4]] (REQUEST)
r 0.029517339 _10_ MAC  --- 0 AODV 48 [0 ffffffff d 800] [energy 19.999011 ei 0.000 es 0.000 et 0.000 er 0.001] ------- [13:255 -1:255 27 0] [0x2 4 1 [6 0] [19 4]] (REQUEST)
r 0.030578387 _24_ MAC  --- 0 ARP 28 [0 ffffffff 6 806] [energy 19.988826 ei 0.000 es 0.000 et 0.009 er 0.002] ------- [REQUEST 6/6 0/24]
r 0.031244272 _16_ MAC  --- 0 AODV 48 [0 ffffffff 3 800] [energy 19.985581 ei 0.000 es 0.000 et 0.009 er 0.005] ------- [3:255 -1:255 27 0] [0x2 4 1 [6 0] [19 4]] (REQUEST)
r 0.031244283 _11_ MAC  --- 0 AODV 48 [0 ffffffff 3 800] [energy 19.985897 ei 0.000 es 0.000 et 0.009 er 0.005] ------- [3:255 -1:255 27 0] [0x2 4 1 [6 0] [19 4]] (REQUEST)
s 0.032823387 _24_ MAC  --- 0 ARP 35 [0 6 18 806] [energy 19.988665 ei 0.000 es 0.000 et 0.009 er 0.002] ------- [REPLY 24/24 6/6]
N -t 0.032823 -n 21 -e 19.987849
N -t 0.032823 -n 6 -e 19.991896
s 0.034327417 _6_ MAC  --- 0 ACK 5 [0 18 6 0] [energy 19.991896 ei 0.000 es 0.000 et 0.006 er 0.002] 
N -t 0.034327 -n 24 -e 19.982191
r 0.034679447 _24_ MAC  --- 0 ACK 5 [0 18 6 0] [energy 19.982191 ei 0.000 es 0.000 et 0.016 er 0.002] 
r 0.035319417 _6_ MAC  --- 0 ARP 28 [0 6 18 806] [energy 19.990206 ei 0.000 es 0.000 et 0.008 er 0.002] ------- [REPLY 24/24 6/6]
s 0.035964417 _6_ MAC  --- 0 AODV 51 [0 18 6 800] [energy 19.990046 ei 0.000 es 0.000 et 0.008 er 0.002] ------- [6:255 19:255 30 24] [0x4 1 [6 4] 10.000000] (REPLY)
N -t 0.035964 -n 24 -e 19.981279
s 0.036844231 _9_ MAC  --- 0 AODV 55 [0 ffffffff 9 800] [energy 19.998847 ei 0.000 es 0.000 et 0.000 er 0.001] ------- [9:255 -1:255 26 0] [0x2 5 1 [6 0] [19 4]] (REQUEST)
N -t 0.036844 -n 10 -e 19.998031
N -t 0.036844 -n 13 -e 19.988502
s 0.037980447 _24_ MAC  --- 0 ACK 5 [0 6 18 0] [energy 19.981279 ei 0.000 es 0.000 et 0.016 er 0.003] 
N -t 0.037980 -n 21 -e 19.987671
N -t 0.037980 -n 6 -e 19.981114
r 0.038332477 _6_ MAC  --- 0 ACK 5 [0 6 18 0] [energy 19.981114 ei 0.000 es 0.000 et 0.017 er 0.002] 
r 0.038972447 _24_ MAC  --- 0 AODV 44 [0 18 6 800] [energy 19.979589 ei 0.000 es 0.000 et 0.017 er 0.003] ------- [6:255 19:255 30 24] [0x4 1 [6 4] 10.000000] (REPLY)
r 0.039436259 _10_ MAC  --- 0 AODV 48 [0 ffffffff 9 800] [energy 19.998031 ei 0.000 es 0.000 et 0.000 er 0.002] ------- [9:255 -1:255 26 0] [0x2 5 1 [6 0] [19 4]] (REQUEST)
r 0.039436270 _13_ MAC  --- 0 AODV 48 [0 ffffffff 9 800] [energy 19.988502 ei 0.000 es 0.000 et 0.009 er 0.002] ------- [9:255 -1:255 26 0] [0x2 5 1 [6 0] [19 4]] (REQUEST)
s 0.039962447 _24_ MAC  --- 0 ARP 35 [0 ffffffff 18 806] [energy 19.979428 ei 0.000 es 0.000 et 0.017 er 0.003] ------- [REQUEST 24/24 0/21]
N -t 0.039962 -n 21 -e 19.987014
N -t 0.039962 -n 6 -e 19.980457
s 0.040926731 _10_ MAC  --- 0 AODV 55 [0 ffffffff a 800] [energy 19.997870 ei 0.000 es 0.000 et 0.000 er 0.002] ------- [10:255 -1:255 26 0] [0x2 5 1 [6 0] [19 4]] (REQUEST)
N -t 0.040927 -n 9 -e 19.988500
N -t 0.040927 -n 13 -e 19.987525
r 0.041914475 _21_ MAC  --- 0 ARP 28 [0 ffffffff 18 806] [energy 19.987014 ei 0.000 es 0.000 et 0.009 er 0.004] ------- [REQUEST 24/24 0/21]
r 0.041914477 _6_ MAC  --- 0 ARP 28 [0 ffffffff 18 806] [energy 19.980457 ei 0.000 es 0.000 et 0.017 er 0.003] ------- [REQUEST 24/24 0/21]
r 0.043518759 _9_ MAC  --- 0 AODV 48 [0 ffffffff a 800] [energy 19.988500 ei 0.000 es 0.000 et 0.009 er 0.002] ------- [10:255 -1:255 26 0] [0x2 5 1 [6 0] [19 4]] (REQUEST)
r 0.043518776 _13_ MAC  --- 0 AODV 48 [0 ffffffff a 800] [energy 19.987525 ei 0.000 es 0.000 et 0.009 er 0.003] ------- [10:255 -1:255 26 0] [0x2 5 1 [6 0] [19 4]] (REQUEST)
s 0.044479475 _21_ MAC  --- 0 ARP 35 [0 18 15 806] [energy 19.986853 ei 0.000 es 0.000 et 0.009 er 0.004] ------- [REPLY 21/21 24/24]
N -t 0.044480 -n 24 -e 19.972473
N -t 0.044480 -n 20 -e 19.985893
s 0.045983503 _24_ MAC  --- 0 ACK 5 [0 15 18 0] [energy 19.972473 ei 0.000 es 0.000 et 0.024 er 0.004] 
N -t 0.045984 -n 21 -e 19.980379
N -t 0.045984 -n 6 -e 19.980279
r 0.046335532 _21_ MAC  --- 0 ACK 5 [0 15 18 0] [energy 19.980379 ei 0.000 es 0.000 et 0.016 er 0.004] 
r 0.046975503 _24_ MAC  --- 0 ARP 28 [0 18 15 806] [energy 19.970783 ei 0.000 es 0.000 et 0.025 er 0.004] ------- [REPLY 21/21 24/24]
s 0.049540503 _24_ MAC  --- 0 AODV 51 [0 15 18 800] [energy 19.970622 ei 0.000 es 0.000 et 0.025 er 0.004] ------- [6:255 19:255 29 21] [0x4 2 [6 4] 10.000000] (REPLY)
N -t 0.049541 -n 21 -e 19.979466
N -t 0.049541 -n 6 -e 19.979366
s 0.051556532 _21_ MAC  --- 0 ACK 5 [0 18 15 0] [energy 19.979466 ei 0.000 es 0.000 et 0.016 er 0.005] 
N -t 0.051557 -n 24 -e 19.961691
N -t 0.051557 -n 20 -e 19.985714
r 0.051908560 _24_ MAC  --- 0 ACK 5 [0 18 15 0] [energy 19.961691 ei 0.000 es 0.000 et 0.034 er 0.004] 
r 0.052548532 _21_ MAC  --- 0 AODV 44 [0 15 18 800] [energy 19.977776 ei 0.000 es 0.000 et 0.017 er 0.005] ------- [6:255 19:255 29 21] [0x4 2 [6 4] 10.000000] (REPLY)
s 0.053858532 _21_ MAC  --- 0 ARP 35 [0 ffffffff 15 806] [energy 19.977615 ei 0.000 es 0.000 et 0.017 er 0.005] ------- [REQUEST 21/21 0/20]
N -t 0.053859 -n 24 -e 19.961034
N -t 0.053859 -n 20 -e 19.985057
r 0.055810560 _24_ MAC  --- 0 ARP 28 [0 ffffffff 15 806] [energy 19.961034 ei 0.000 es 0.000 et 0.034 er 0.005] ------- [REQUEST 21/21 0/20]
r 0.055810579 _20_ MAC  --- 0 ARP 28 [0 ffffffff 15 806] [energy 19.985057 ei 0.000 es 0.000 et 0.009 er 0.006] ------- [REQUEST 21/21 0/20]
s 0.057735579 _20_ MAC  --- 0 ARP 35 [0 15 14 806] [energy 19.984896 ei 0.000 es 0.000 et 0.009 er 0.006] ------- [REPLY 20/20 21/21]
N -t 0.057736 -n 4 -e 19.987837
N -t 0.057736 -n 21 -e 19.970660
N -t 0.057736 -n 15 -e 19.986862
N -t 0.057736 -n 19 -e 19.984892
s 0.059239626 _21_ MAC  --- 0 ACK 5 [0 14 15 0] [energy 19.970660 ei 0.000 es 0.000 et 0.024 er 0.006] 
N -t 0.059240 -n 24 -e 19.960856
N -t 0.059240 -n 20 -e 19.978423
r 0.059591673 _20_ MAC  --- 0 ACK 5 [0 14 15 0] [energy 19.978423 ei 0.000 es 0.000 et 0.016 er 0.006] 
r 0.060231626 _21_ MAC  --- 0 ARP 28 [0 15 14 806] [energy 19.968971 ei 0.000 es 0.000 et 0.025 er 0.006] ------- [REPLY 20/20 21/21]
s 0.062476626 _21_ MAC  --- 0 AODV 51 [0 14 15 800] [energy 19.968809 ei 0.000 es 0.000 et 0.025 er 0.006] ------- [6:255 19:255 28 20] [0x4 3 [6 4] 10.000000] (REPLY)
N -t 0.062477 -n 24 -e 19.959942
N -t 0.062477 -n 20 -e 19.977509
s 0.064492673 _20_ MAC  --- 0 ACK 5 [0 15 14 0] [energy 19.977509 ei 0.000 es 0.000 et 0.016 er 0.007] 
N -t 0.064493 -n 4 -e 19.987658
N -t 0.064493 -n 21 -e 19.959878
N -t 0.064493 -n 15 -e 19.986683
N -t 0.064493 -n 19 -e 19.984714
r 0.064844719 _21_ MAC  --- 0 ACK 5 [0 15 14 0] [energy 19.959878 ei 0.000 es 0.000 et 0.034 er 0.006] 
r 0.065484673 _20_ MAC  --- 0 AODV 44 [0 14 15 800] [energy 19.975819 ei 0.000 es 0.000 et 0.017 er 0.007] ------- [6:255 19:255 28 20] [0x4 3 [6 4] 10.000000] (REPLY)
s 0.068074673 _20_ MAC  --- 0 ARP 35 [0 ffffffff 14 806] [energy 19.975658 ei 0.000 es 0.000 et 0.017 er 0.007] ------- [REQUEST 20/20 0/19]
N -t 0.068075 -n 4 -e 19.987000
N -t 0.068075 -n 21 -e 19.959220
N -t 0.068075 -n 15 -e 19.986025
N -t 0.068075 -n 19 -e 19.984056
r 0.070026703 _4_ MAC  --- 0 ARP 28 [0 ffffffff 14 806] [energy 19.987000 ei 0.000 es 0.000 et 0.009 er 0.004] ------- [REQUEST 20/20 0/19]
r 0.070026719 _21_ MAC  --- 0 ARP 28 [0 ffffffff 14 806] [energy 19.959220 ei 0.000 es 0.000 et 0.034 er 0.007] ------- [REQUEST 20/20 0/19]
r 0.070026720 _15_ MAC  --- 0 ARP 28 [0 ffffffff 14 806] [energy 19.986025 ei 0.000 es 0.000 et 0.009 er 0.005] ------- [REQUEST 20/20 0/19]
r 0.070026722 _19_ MAC  --- 0 ARP 28 [0 ffffffff 14 806] [energy 19.984056 ei 0.000 es 0.000 et 0.009 er 0.007] ------- [REQUEST 20/20 0/19]
s 0.072591722 _19_ MAC  --- 0 ARP 35 [0 14 13 806] [energy 19.983895 ei 0.000 es 0.000 et 0.009 er 0.007] ------- [REPLY 19/19 20/20]
N -t 0.072592 -n 23 -e 19.984864
N -t 0.072592 -n 12 -e 19.983910
N -t 0.072592 -n 22 -e 19.983910
N -t 0.072592 -n 2 -e 19.983249
N -t 0.072592 -n 7 -e 19.990993
N -t 0.072592 -n 8 -e 19.984885
N -t 0.072592 -n 20 -e 19.968703
s 0.074095771 _20_ MAC  --- 0 ACK 5 [0 13 14 0] [energy 19.968703 ei 0.000 es 0.000 et 0.024 er 0.008] 
N -t 0.074096 -n 4 -e 19.986822
N -t 0.074096 -n 21 -e 19.959042
N -t 0.074096 -n 15 -e 19.985847
N -t 0.074096 -n 19 -e 19.977421
r 0.074447820 _19_ MAC  --- 0 ACK 5 [0 13 14 0] [energy 19.977421 ei 0.000 es 0.000 et 0.016 er 0.007] 
r 0.075087771 _20_ MAC  --- 0 ARP 28 [0 14 13 806] [energy 19.967013 ei 0.000 es 0.000 et 0.025 er 0.008] ------- [REPLY 19/19 20/20]
s 0.077012771 _20_ MAC  --- 0 AODV 51 [0 13 14 800] [energy 19.966852 ei 0.000 es 0.000 et 0.025 er 0.008] ------- [6:255 19:255 27 19] [0x4 4 [6 4] 10.000000] (REPLY)
N -t 0.077013 -n 4 -e 19.985909
N -t 0.077013 -n 21 -e 19.958129
N -t 0.077013 -n 15 -e 19.984934
N -t 0.077013 -n 19 -e 19.976507
s 0.079028820 _19_ MAC  --- 0 ACK 5 [0 14 13 0] [energy 19.976507 ei 0.000 es 0.000 et 0.016 er 0.008] 
N -t 0.079029 -n 23 -e 19.984685
N -t 0.079029 -n 12 -e 19.983731
N -t 0.079029 -n 22 -e 19.983731
N -t 0.079029 -n 2 -e 19.983071
N -t 0.079029 -n 7 -e 19.990815
N -t 0.079029 -n 8 -e 19.984706
N -t 0.079029 -n 20 -e 19.957921
r 0.079380869 _20_ MAC  --- 0 ACK 5 [0 14 13 0] [energy 19.957921 ei 0.000 es 0.000 et 0.034 er 0.008] 
v 0.080000000000000002 eval {set sim_annotation {cbr traffic from node 19 to node 6: 19 20 21 24 6}}
r 0.080020820 _19_ MAC  --- 0 AODV 44 [0 13 14 800] [energy 19.974818 ei 0.000 es 0.000 et 0.017 er 0.008] ------- [6:255 19:255 27 19] [0x4 4 [6 4] 10.000000] (REPLY)
s 0.080390820 _19_ MAC  --- 0 cbr 97 [0 14 13 800] [energy 19.974658 ei 0.000 es 0.000 et 0.017 er 0.008] ------- [19:0 6:0 30 20] [0] 0 0
N -t 0.080391 -n 23 -e 19.983037
N -t 0.080391 -n 12 -e 19.982083
N -t 0.080391 -n 22 -e 19.982083
N -t 0.080391 -n 2 -e 19.981422
N -t 0.080391 -n 7 -e 19.989166
N -t 0.080391 -n 8 -e 19.983058
N -t 0.080391 -n 20 -e 19.956272
s 0.083878869 _20_ MAC  --- 0 ACK 5 [0 13 14 0] [energy 19.956272 ei 0.000 es 0.000 et 0.034 er 0.010] 
N -t 0.083879 -n 4 -e 19.985730
N -t 0.083879 -n 21 -e 19.957950
N -t 0.083879 -n 15 -e 19.984755
N -t 0.083879 -n 19 -e 19.958661